* STRUCTURE OPTIMIZATION
*  DATE:     8/ 9/23     16: 0: 2      CREATED BY USER: marta
*
         3  EXT
         1         1  OH        OH2          6664.5274455415     6664.6855209371     6664.6855209371  OH        1               0.0000000000
         2         1  OH        DOH2         6664.5274455403     6664.6855209383     6664.6855209383  OH        1               0.0000000000
         3         1  OH        H1           6663.9731694074     6664.1337012974     6664.1337012974  OH        1               0.0000000000
