* STRUCTURE OPTIMIZATION
*  DATE:     6/15/23     12: 2:14      CREATED BY USER: marta
*
         4  EXT
         1         1  OPC3      OH2             0.0086792411        0.4493131447        0.0000000000  OPC3      1               0.0000000000
         2         1  OPC3      DOH2            0.0086792282        0.4493131453        0.0000000000  OPC3      1               0.0000000000
         3         1  OPC3      H1             -0.9927807334       -0.2315678657        0.0000000000  OPC3      1               0.0000000000
         4         1  OPC3      H2              0.9844247048       -0.2679328087        0.0000000000  OPC3      1               0.0000000000
