*Created by FFParam
*
         3  EXT
         1         1  OPC3      OH2             0.0080000000        0.3980000000        0.0000000000  OPC3      1               0.0000000000
         2         1  OPC3      H1             -0.7670000000       -0.1840000000        0.0000000000  OPC3      1               0.0000000000
         3         1  OPC3      H2              0.7600000000       -0.2130000000        0.0000000000  OPC3      1               0.0000000000
