PSF EXT CMAP CHEQ DRUDE XPLOR

         4 !NTITLE
*~~~~~~~~~~~~~~~~~~~~~~~~~~~~~~~~~~~~~~~~~~~~~~~~~~~~~~~~~~~~~~~~~~~~~~~        
*~ MINIMIZATION OF PACKMOL STRUCTURE                                            
*~~~~~~~~~~~~~~~~~~~~~~~~~~~~~~~~~~~~~~~~~~~~~~~~~~~~~~~~~~~~~~~~~~~~~~~        
*  DATE:    11/20/24     17: 0:22      CREATED BY USER: student7                

     22500 !NATOM
         1 IM1H     1        IM1H     C1       CD33F     1.70390       11.6110           0  -1.18100       1.10000    
         2 IM1H     1        IM1H     DC1      DRUD     -1.88590      0.400000           0   0.00000       0.00000    
         3 IM1H     1        IM1H     H1       HDA3A    0.135000       1.00800           0   0.00000       0.00000    
         4 IM1H     1        IM1H     H2       HDA3A    0.135000       1.00800           0   0.00000       0.00000    
         5 IM1H     1        IM1H     H3       HDA3A    0.135000       1.00800           0   0.00000       0.00000    
         6 IM1H     1        IM1H     N1       ND2R5C    1.71300       13.6070           0 -0.803000       1.00000    
         7 IM1H     1        IM1H     DN1      DRUD     -1.55500      0.400000           0   0.00000       0.00000    
         8 IM1H     1        IM1H     C2       CD2R5D    1.69890       11.6110           0  -1.08300       1.10000    
         9 IM1H     1        IM1H     DC2      DRUD     -1.80590      0.400000           0   0.00000       0.00000    
        10 IM1H     1        IM1H     H4       HDR5D    0.195000       1.00800           0   0.00000       0.00000    
        11 IM1H     1        IM1H     C3       CD2R5D    1.75890       11.6110           0  -1.08300       1.10000    
        12 IM1H     1        IM1H     DC3      DRUD     -1.80590      0.400000           0   0.00000       0.00000    
        13 IM1H     1        IM1H     H5       HDR5D    0.192000       1.00800           0   0.00000       0.00000    
        14 IM1H     1        IM1H     C4       CD2R5E    1.91950       11.6110           0  -1.25300       1.20000    
        15 IM1H     1        IM1H     DC4      DRUD     -1.94250      0.400000           0   0.00000       0.00000    
        16 IM1H     1        IM1H     H6       HDR5E    0.203000       1.00800           0   0.00000       0.00000    
        17 IM1H     1        IM1H     N2       ND2R5C    1.39800       13.6070           0 -0.803000       1.00000    
        18 IM1H     1        IM1H     DN2      DRUD     -1.55500      0.400000           0   0.00000       0.00000    
        19 IM1H     1        IM1H     H7       HDP1A    0.363000       1.00800           0   0.00000       0.00000    
        20 IM1H     1        IM1H     LPN21    LPD       0.00000       0.00000          -1   0.00000       0.00000    
        21 IM1H     2        IM1H     C1       CD33F     1.70390       11.6110           0  -1.18100       1.10000    
        22 IM1H     2        IM1H     DC1      DRUD     -1.88590      0.400000           0   0.00000       0.00000    
        23 IM1H     2        IM1H     H1       HDA3A    0.135000       1.00800           0   0.00000       0.00000    
        24 IM1H     2        IM1H     H2       HDA3A    0.135000       1.00800           0   0.00000       0.00000    
        25 IM1H     2        IM1H     H3       HDA3A    0.135000       1.00800           0   0.00000       0.00000    
        26 IM1H     2        IM1H     N1       ND2R5C    1.71300       13.6070           0 -0.803000       1.00000    
        27 IM1H     2        IM1H     DN1      DRUD     -1.55500      0.400000           0   0.00000       0.00000    
        28 IM1H     2        IM1H     C2       CD2R5D    1.69890       11.6110           0  -1.08300       1.10000    
        29 IM1H     2        IM1H     DC2      DRUD     -1.80590      0.400000           0   0.00000       0.00000    
        30 IM1H     2        IM1H     H4       HDR5D    0.195000       1.00800           0   0.00000       0.00000    
        31 IM1H     2        IM1H     C3       CD2R5D    1.75890       11.6110           0  -1.08300       1.10000    
        32 IM1H     2        IM1H     DC3      DRUD     -1.80590      0.400000           0   0.00000       0.00000    
        33 IM1H     2        IM1H     H5       HDR5D    0.192000       1.00800           0   0.00000       0.00000    
        34 IM1H     2        IM1H     C4       CD2R5E    1.91950       11.6110           0  -1.25300       1.20000    
        35 IM1H     2        IM1H     DC4      DRUD     -1.94250      0.400000           0   0.00000       0.00000    
        36 IM1H     2        IM1H     H6       HDR5E    0.203000       1.00800           0   0.00000       0.00000    
        37 IM1H     2        IM1H     N2       ND2R5C    1.39800       13.6070           0 -0.803000       1.00000    
        38 IM1H     2        IM1H     DN2      DRUD     -1.55500      0.400000           0   0.00000       0.00000    
        39 IM1H     2        IM1H     H7       HDP1A    0.363000       1.00800           0   0.00000       0.00000    
        40 IM1H     2        IM1H     LPN21    LPD       0.00000       0.00000          -1   0.00000       0.00000    
        41 IM1H     3        IM1H     C1       CD33F     1.70390       11.6110           0  -1.18100       1.10000    
        42 IM1H     3        IM1H     DC1      DRUD     -1.88590      0.400000           0   0.00000       0.00000    
        43 IM1H     3        IM1H     H1       HDA3A    0.135000       1.00800           0   0.00000       0.00000    
        44 IM1H     3        IM1H     H2       HDA3A    0.135000       1.00800           0   0.00000       0.00000    
        45 IM1H     3        IM1H     H3       HDA3A    0.135000       1.00800           0   0.00000       0.00000    
        46 IM1H     3        IM1H     N1       ND2R5C    1.71300       13.6070           0 -0.803000       1.00000    
        47 IM1H     3        IM1H     DN1      DRUD     -1.55500      0.400000           0   0.00000       0.00000    
        48 IM1H     3        IM1H     C2       CD2R5D    1.69890       11.6110           0  -1.08300       1.10000    
        49 IM1H     3        IM1H     DC2      DRUD     -1.80590      0.400000           0   0.00000       0.00000    
        50 IM1H     3        IM1H     H4       HDR5D    0.195000       1.00800           0   0.00000       0.00000    
        51 IM1H     3        IM1H     C3       CD2R5D    1.75890       11.6110           0  -1.08300       1.10000    
        52 IM1H     3        IM1H     DC3      DRUD     -1.80590      0.400000           0   0.00000       0.00000    
        53 IM1H     3        IM1H     H5       HDR5D    0.192000       1.00800           0   0.00000       0.00000    
        54 IM1H     3        IM1H     C4       CD2R5E    1.91950       11.6110           0  -1.25300       1.20000    
        55 IM1H     3        IM1H     DC4      DRUD     -1.94250      0.400000           0   0.00000       0.00000    
        56 IM1H     3        IM1H     H6       HDR5E    0.203000       1.00800           0   0.00000       0.00000    
        57 IM1H     3        IM1H     N2       ND2R5C    1.39800       13.6070           0 -0.803000       1.00000    
        58 IM1H     3        IM1H     DN2      DRUD     -1.55500      0.400000           0   0.00000       0.00000    
        59 IM1H     3        IM1H     H7       HDP1A    0.363000       1.00800           0   0.00000       0.00000    
        60 IM1H     3        IM1H     LPN21    LPD       0.00000       0.00000          -1   0.00000       0.00000    
        61 IM1H     4        IM1H     C1       CD33F     1.70390       11.6110           0  -1.18100       1.10000    
        62 IM1H     4        IM1H     DC1      DRUD     -1.88590      0.400000           0   0.00000       0.00000    
        63 IM1H     4        IM1H     H1       HDA3A    0.135000       1.00800           0   0.00000       0.00000    
        64 IM1H     4        IM1H     H2       HDA3A    0.135000       1.00800           0   0.00000       0.00000    
        65 IM1H     4        IM1H     H3       HDA3A    0.135000       1.00800           0   0.00000       0.00000    
        66 IM1H     4        IM1H     N1       ND2R5C    1.71300       13.6070           0 -0.803000       1.00000    
        67 IM1H     4        IM1H     DN1      DRUD     -1.55500      0.400000           0   0.00000       0.00000    
        68 IM1H     4        IM1H     C2       CD2R5D    1.69890       11.6110           0  -1.08300       1.10000    
        69 IM1H     4        IM1H     DC2      DRUD     -1.80590      0.400000           0   0.00000       0.00000    
        70 IM1H     4        IM1H     H4       HDR5D    0.195000       1.00800           0   0.00000       0.00000    
        71 IM1H     4        IM1H     C3       CD2R5D    1.75890       11.6110           0  -1.08300       1.10000    
        72 IM1H     4        IM1H     DC3      DRUD     -1.80590      0.400000           0   0.00000       0.00000    
        73 IM1H     4        IM1H     H5       HDR5D    0.192000       1.00800           0   0.00000       0.00000    
        74 IM1H     4        IM1H     C4       CD2R5E    1.91950       11.6110           0  -1.25300       1.20000    
        75 IM1H     4        IM1H     DC4      DRUD     -1.94250      0.400000           0   0.00000       0.00000    
        76 IM1H     4        IM1H     H6       HDR5E    0.203000       1.00800           0   0.00000       0.00000    
        77 IM1H     4        IM1H     N2       ND2R5C    1.39800       13.6070           0 -0.803000       1.00000    
        78 IM1H     4        IM1H     DN2      DRUD     -1.55500      0.400000           0   0.00000       0.00000    
        79 IM1H     4        IM1H     H7       HDP1A    0.363000       1.00800           0   0.00000       0.00000    
        80 IM1H     4        IM1H     LPN21    LPD       0.00000       0.00000          -1   0.00000       0.00000    
        81 IM1H     5        IM1H     C1       CD33F     1.70390       11.6110           0  -1.18100       1.10000    
        82 IM1H     5        IM1H     DC1      DRUD     -1.88590      0.400000           0   0.00000       0.00000    
        83 IM1H     5        IM1H     H1       HDA3A    0.135000       1.00800           0   0.00000       0.00000    
        84 IM1H     5        IM1H     H2       HDA3A    0.135000       1.00800           0   0.00000       0.00000    
        85 IM1H     5        IM1H     H3       HDA3A    0.135000       1.00800           0   0.00000       0.00000    
        86 IM1H     5        IM1H     N1       ND2R5C    1.71300       13.6070           0 -0.803000       1.00000    
        87 IM1H     5        IM1H     DN1      DRUD     -1.55500      0.400000           0   0.00000       0.00000    
        88 IM1H     5        IM1H     C2       CD2R5D    1.69890       11.6110           0  -1.08300       1.10000    
        89 IM1H     5        IM1H     DC2      DRUD     -1.80590      0.400000           0   0.00000       0.00000    
        90 IM1H     5        IM1H     H4       HDR5D    0.195000       1.00800           0   0.00000       0.00000    
        91 IM1H     5        IM1H     C3       CD2R5D    1.75890       11.6110           0  -1.08300       1.10000    
        92 IM1H     5        IM1H     DC3      DRUD     -1.80590      0.400000           0   0.00000       0.00000    
        93 IM1H     5        IM1H     H5       HDR5D    0.192000       1.00800           0   0.00000       0.00000    
        94 IM1H     5        IM1H     C4       CD2R5E    1.91950       11.6110           0  -1.25300       1.20000    
        95 IM1H     5        IM1H     DC4      DRUD     -1.94250      0.400000           0   0.00000       0.00000    
        96 IM1H     5        IM1H     H6       HDR5E    0.203000       1.00800           0   0.00000       0.00000    
        97 IM1H     5        IM1H     N2       ND2R5C    1.39800       13.6070           0 -0.803000       1.00000    
        98 IM1H     5        IM1H     DN2      DRUD     -1.55500      0.400000           0   0.00000       0.00000    
        99 IM1H     5        IM1H     H7       HDP1A    0.363000       1.00800           0   0.00000       0.00000    
       100 IM1H     5        IM1H     LPN21    LPD       0.00000       0.00000          -1   0.00000       0.00000    
       101 IM1H     6        IM1H     C1       CD33F     1.70390       11.6110           0  -1.18100       1.10000    
       102 IM1H     6        IM1H     DC1      DRUD     -1.88590      0.400000           0   0.00000       0.00000    
       103 IM1H     6        IM1H     H1       HDA3A    0.135000       1.00800           0   0.00000       0.00000    
       104 IM1H     6        IM1H     H2       HDA3A    0.135000       1.00800           0   0.00000       0.00000    
       105 IM1H     6        IM1H     H3       HDA3A    0.135000       1.00800           0   0.00000       0.00000    
       106 IM1H     6        IM1H     N1       ND2R5C    1.71300       13.6070           0 -0.803000       1.00000    
       107 IM1H     6        IM1H     DN1      DRUD     -1.55500      0.400000           0   0.00000       0.00000    
       108 IM1H     6        IM1H     C2       CD2R5D    1.69890       11.6110           0  -1.08300       1.10000    
       109 IM1H     6        IM1H     DC2      DRUD     -1.80590      0.400000           0   0.00000       0.00000    
       110 IM1H     6        IM1H     H4       HDR5D    0.195000       1.00800           0   0.00000       0.00000    
       111 IM1H     6        IM1H     C3       CD2R5D    1.75890       11.6110           0  -1.08300       1.10000    
       112 IM1H     6        IM1H     DC3      DRUD     -1.80590      0.400000           0   0.00000       0.00000    
       113 IM1H     6        IM1H     H5       HDR5D    0.192000       1.00800           0   0.00000       0.00000    
       114 IM1H     6        IM1H     C4       CD2R5E    1.91950       11.6110           0  -1.25300       1.20000    
       115 IM1H     6        IM1H     DC4      DRUD     -1.94250      0.400000           0   0.00000       0.00000    
       116 IM1H     6        IM1H     H6       HDR5E    0.203000       1.00800           0   0.00000       0.00000    
       117 IM1H     6        IM1H     N2       ND2R5C    1.39800       13.6070           0 -0.803000       1.00000    
       118 IM1H     6        IM1H     DN2      DRUD     -1.55500      0.400000           0   0.00000       0.00000    
       119 IM1H     6        IM1H     H7       HDP1A    0.363000       1.00800           0   0.00000       0.00000    
       120 IM1H     6        IM1H     LPN21    LPD       0.00000       0.00000          -1   0.00000       0.00000    
       121 IM1H     7        IM1H     C1       CD33F     1.70390       11.6110           0  -1.18100       1.10000    
       122 IM1H     7        IM1H     DC1      DRUD     -1.88590      0.400000           0   0.00000       0.00000    
       123 IM1H     7        IM1H     H1       HDA3A    0.135000       1.00800           0   0.00000       0.00000    
       124 IM1H     7        IM1H     H2       HDA3A    0.135000       1.00800           0   0.00000       0.00000    
       125 IM1H     7        IM1H     H3       HDA3A    0.135000       1.00800           0   0.00000       0.00000    
       126 IM1H     7        IM1H     N1       ND2R5C    1.71300       13.6070           0 -0.803000       1.00000    
       127 IM1H     7        IM1H     DN1      DRUD     -1.55500      0.400000           0   0.00000       0.00000    
       128 IM1H     7        IM1H     C2       CD2R5D    1.69890       11.6110           0  -1.08300       1.10000    
       129 IM1H     7        IM1H     DC2      DRUD     -1.80590      0.400000           0   0.00000       0.00000    
       130 IM1H     7        IM1H     H4       HDR5D    0.195000       1.00800           0   0.00000       0.00000    
       131 IM1H     7        IM1H     C3       CD2R5D    1.75890       11.6110           0  -1.08300       1.10000    
       132 IM1H     7        IM1H     DC3      DRUD     -1.80590      0.400000           0   0.00000       0.00000    
       133 IM1H     7        IM1H     H5       HDR5D    0.192000       1.00800           0   0.00000       0.00000    
       134 IM1H     7        IM1H     C4       CD2R5E    1.91950       11.6110           0  -1.25300       1.20000    
       135 IM1H     7        IM1H     DC4      DRUD     -1.94250      0.400000           0   0.00000       0.00000    
       136 IM1H     7        IM1H     H6       HDR5E    0.203000       1.00800           0   0.00000       0.00000    
       137 IM1H     7        IM1H     N2       ND2R5C    1.39800       13.6070           0 -0.803000       1.00000    
       138 IM1H     7        IM1H     DN2      DRUD     -1.55500      0.400000           0   0.00000       0.00000    
       139 IM1H     7        IM1H     H7       HDP1A    0.363000       1.00800           0   0.00000       0.00000    
       140 IM1H     7        IM1H     LPN21    LPD       0.00000       0.00000          -1   0.00000       0.00000    
       141 IM1H     8        IM1H     C1       CD33F     1.70390       11.6110           0  -1.18100       1.10000    
       142 IM1H     8        IM1H     DC1      DRUD     -1.88590      0.400000           0   0.00000       0.00000    
       143 IM1H     8        IM1H     H1       HDA3A    0.135000       1.00800           0   0.00000       0.00000    
       144 IM1H     8        IM1H     H2       HDA3A    0.135000       1.00800           0   0.00000       0.00000    
       145 IM1H     8        IM1H     H3       HDA3A    0.135000       1.00800           0   0.00000       0.00000    
       146 IM1H     8        IM1H     N1       ND2R5C    1.71300       13.6070           0 -0.803000       1.00000    
       147 IM1H     8        IM1H     DN1      DRUD     -1.55500      0.400000           0   0.00000       0.00000    
       148 IM1H     8        IM1H     C2       CD2R5D    1.69890       11.6110           0  -1.08300       1.10000    
       149 IM1H     8        IM1H     DC2      DRUD     -1.80590      0.400000           0   0.00000       0.00000    
       150 IM1H     8        IM1H     H4       HDR5D    0.195000       1.00800           0   0.00000       0.00000    
       151 IM1H     8        IM1H     C3       CD2R5D    1.75890       11.6110           0  -1.08300       1.10000    
       152 IM1H     8        IM1H     DC3      DRUD     -1.80590      0.400000           0   0.00000       0.00000    
       153 IM1H     8        IM1H     H5       HDR5D    0.192000       1.00800           0   0.00000       0.00000    
       154 IM1H     8        IM1H     C4       CD2R5E    1.91950       11.6110           0  -1.25300       1.20000    
       155 IM1H     8        IM1H     DC4      DRUD     -1.94250      0.400000           0   0.00000       0.00000    
       156 IM1H     8        IM1H     H6       HDR5E    0.203000       1.00800           0   0.00000       0.00000    
       157 IM1H     8        IM1H     N2       ND2R5C    1.39800       13.6070           0 -0.803000       1.00000    
       158 IM1H     8        IM1H     DN2      DRUD     -1.55500      0.400000           0   0.00000       0.00000    
       159 IM1H     8        IM1H     H7       HDP1A    0.363000       1.00800           0   0.00000       0.00000    
       160 IM1H     8        IM1H     LPN21    LPD       0.00000       0.00000          -1   0.00000       0.00000    
       161 IM1H     9        IM1H     C1       CD33F     1.70390       11.6110           0  -1.18100       1.10000    
       162 IM1H     9        IM1H     DC1      DRUD     -1.88590      0.400000           0   0.00000       0.00000    
       163 IM1H     9        IM1H     H1       HDA3A    0.135000       1.00800           0   0.00000       0.00000    
       164 IM1H     9        IM1H     H2       HDA3A    0.135000       1.00800           0   0.00000       0.00000    
       165 IM1H     9        IM1H     H3       HDA3A    0.135000       1.00800           0   0.00000       0.00000    
       166 IM1H     9        IM1H     N1       ND2R5C    1.71300       13.6070           0 -0.803000       1.00000    
       167 IM1H     9        IM1H     DN1      DRUD     -1.55500      0.400000           0   0.00000       0.00000    
       168 IM1H     9        IM1H     C2       CD2R5D    1.69890       11.6110           0  -1.08300       1.10000    
       169 IM1H     9        IM1H     DC2      DRUD     -1.80590      0.400000           0   0.00000       0.00000    
       170 IM1H     9        IM1H     H4       HDR5D    0.195000       1.00800           0   0.00000       0.00000    
       171 IM1H     9        IM1H     C3       CD2R5D    1.75890       11.6110           0  -1.08300       1.10000    
       172 IM1H     9        IM1H     DC3      DRUD     -1.80590      0.400000           0   0.00000       0.00000    
       173 IM1H     9        IM1H     H5       HDR5D    0.192000       1.00800           0   0.00000       0.00000    
       174 IM1H     9        IM1H     C4       CD2R5E    1.91950       11.6110           0  -1.25300       1.20000    
       175 IM1H     9        IM1H     DC4      DRUD     -1.94250      0.400000           0   0.00000       0.00000    
       176 IM1H     9        IM1H     H6       HDR5E    0.203000       1.00800           0   0.00000       0.00000    
       177 IM1H     9        IM1H     N2       ND2R5C    1.39800       13.6070           0 -0.803000       1.00000    
       178 IM1H     9        IM1H     DN2      DRUD     -1.55500      0.400000           0   0.00000       0.00000    
       179 IM1H     9        IM1H     H7       HDP1A    0.363000       1.00800           0   0.00000       0.00000    
       180 IM1H     9        IM1H     LPN21    LPD       0.00000       0.00000          -1   0.00000       0.00000    
       181 IM1H     10       IM1H     C1       CD33F     1.70390       11.6110           0  -1.18100       1.10000    
       182 IM1H     10       IM1H     DC1      DRUD     -1.88590      0.400000           0   0.00000       0.00000    
       183 IM1H     10       IM1H     H1       HDA3A    0.135000       1.00800           0   0.00000       0.00000    
       184 IM1H     10       IM1H     H2       HDA3A    0.135000       1.00800           0   0.00000       0.00000    
       185 IM1H     10       IM1H     H3       HDA3A    0.135000       1.00800           0   0.00000       0.00000    
       186 IM1H     10       IM1H     N1       ND2R5C    1.71300       13.6070           0 -0.803000       1.00000    
       187 IM1H     10       IM1H     DN1      DRUD     -1.55500      0.400000           0   0.00000       0.00000    
       188 IM1H     10       IM1H     C2       CD2R5D    1.69890       11.6110           0  -1.08300       1.10000    
       189 IM1H     10       IM1H     DC2      DRUD     -1.80590      0.400000           0   0.00000       0.00000    
       190 IM1H     10       IM1H     H4       HDR5D    0.195000       1.00800           0   0.00000       0.00000    
       191 IM1H     10       IM1H     C3       CD2R5D    1.75890       11.6110           0  -1.08300       1.10000    
       192 IM1H     10       IM1H     DC3      DRUD     -1.80590      0.400000           0   0.00000       0.00000    
       193 IM1H     10       IM1H     H5       HDR5D    0.192000       1.00800           0   0.00000       0.00000    
       194 IM1H     10       IM1H     C4       CD2R5E    1.91950       11.6110           0  -1.25300       1.20000    
       195 IM1H     10       IM1H     DC4      DRUD     -1.94250      0.400000           0   0.00000       0.00000    
       196 IM1H     10       IM1H     H6       HDR5E    0.203000       1.00800           0   0.00000       0.00000    
       197 IM1H     10       IM1H     N2       ND2R5C    1.39800       13.6070           0 -0.803000       1.00000    
       198 IM1H     10       IM1H     DN2      DRUD     -1.55500      0.400000           0   0.00000       0.00000    
       199 IM1H     10       IM1H     H7       HDP1A    0.363000       1.00800           0   0.00000       0.00000    
       200 IM1H     10       IM1H     LPN21    LPD       0.00000       0.00000          -1   0.00000       0.00000    
       201 IM1H     11       IM1H     C1       CD33F     1.70390       11.6110           0  -1.18100       1.10000    
       202 IM1H     11       IM1H     DC1      DRUD     -1.88590      0.400000           0   0.00000       0.00000    
       203 IM1H     11       IM1H     H1       HDA3A    0.135000       1.00800           0   0.00000       0.00000    
       204 IM1H     11       IM1H     H2       HDA3A    0.135000       1.00800           0   0.00000       0.00000    
       205 IM1H     11       IM1H     H3       HDA3A    0.135000       1.00800           0   0.00000       0.00000    
       206 IM1H     11       IM1H     N1       ND2R5C    1.71300       13.6070           0 -0.803000       1.00000    
       207 IM1H     11       IM1H     DN1      DRUD     -1.55500      0.400000           0   0.00000       0.00000    
       208 IM1H     11       IM1H     C2       CD2R5D    1.69890       11.6110           0  -1.08300       1.10000    
       209 IM1H     11       IM1H     DC2      DRUD     -1.80590      0.400000           0   0.00000       0.00000    
       210 IM1H     11       IM1H     H4       HDR5D    0.195000       1.00800           0   0.00000       0.00000    
       211 IM1H     11       IM1H     C3       CD2R5D    1.75890       11.6110           0  -1.08300       1.10000    
       212 IM1H     11       IM1H     DC3      DRUD     -1.80590      0.400000           0   0.00000       0.00000    
       213 IM1H     11       IM1H     H5       HDR5D    0.192000       1.00800           0   0.00000       0.00000    
       214 IM1H     11       IM1H     C4       CD2R5E    1.91950       11.6110           0  -1.25300       1.20000    
       215 IM1H     11       IM1H     DC4      DRUD     -1.94250      0.400000           0   0.00000       0.00000    
       216 IM1H     11       IM1H     H6       HDR5E    0.203000       1.00800           0   0.00000       0.00000    
       217 IM1H     11       IM1H     N2       ND2R5C    1.39800       13.6070           0 -0.803000       1.00000    
       218 IM1H     11       IM1H     DN2      DRUD     -1.55500      0.400000           0   0.00000       0.00000    
       219 IM1H     11       IM1H     H7       HDP1A    0.363000       1.00800           0   0.00000       0.00000    
       220 IM1H     11       IM1H     LPN21    LPD       0.00000       0.00000          -1   0.00000       0.00000    
       221 IM1H     12       IM1H     C1       CD33F     1.70390       11.6110           0  -1.18100       1.10000    
       222 IM1H     12       IM1H     DC1      DRUD     -1.88590      0.400000           0   0.00000       0.00000    
       223 IM1H     12       IM1H     H1       HDA3A    0.135000       1.00800           0   0.00000       0.00000    
       224 IM1H     12       IM1H     H2       HDA3A    0.135000       1.00800           0   0.00000       0.00000    
       225 IM1H     12       IM1H     H3       HDA3A    0.135000       1.00800           0   0.00000       0.00000    
       226 IM1H     12       IM1H     N1       ND2R5C    1.71300       13.6070           0 -0.803000       1.00000    
       227 IM1H     12       IM1H     DN1      DRUD     -1.55500      0.400000           0   0.00000       0.00000    
       228 IM1H     12       IM1H     C2       CD2R5D    1.69890       11.6110           0  -1.08300       1.10000    
       229 IM1H     12       IM1H     DC2      DRUD     -1.80590      0.400000           0   0.00000       0.00000    
       230 IM1H     12       IM1H     H4       HDR5D    0.195000       1.00800           0   0.00000       0.00000    
       231 IM1H     12       IM1H     C3       CD2R5D    1.75890       11.6110           0  -1.08300       1.10000    
       232 IM1H     12       IM1H     DC3      DRUD     -1.80590      0.400000           0   0.00000       0.00000    
       233 IM1H     12       IM1H     H5       HDR5D    0.192000       1.00800           0   0.00000       0.00000    
       234 IM1H     12       IM1H     C4       CD2R5E    1.91950       11.6110           0  -1.25300       1.20000    
       235 IM1H     12       IM1H     DC4      DRUD     -1.94250      0.400000           0   0.00000       0.00000    
       236 IM1H     12       IM1H     H6       HDR5E    0.203000       1.00800           0   0.00000       0.00000    
       237 IM1H     12       IM1H     N2       ND2R5C    1.39800       13.6070           0 -0.803000       1.00000    
       238 IM1H     12       IM1H     DN2      DRUD     -1.55500      0.400000           0   0.00000       0.00000    
       239 IM1H     12       IM1H     H7       HDP1A    0.363000       1.00800           0   0.00000       0.00000    
       240 IM1H     12       IM1H     LPN21    LPD       0.00000       0.00000          -1   0.00000       0.00000    
       241 IM1H     13       IM1H     C1       CD33F     1.70390       11.6110           0  -1.18100       1.10000    
       242 IM1H     13       IM1H     DC1      DRUD     -1.88590      0.400000           0   0.00000       0.00000    
       243 IM1H     13       IM1H     H1       HDA3A    0.135000       1.00800           0   0.00000       0.00000    
       244 IM1H     13       IM1H     H2       HDA3A    0.135000       1.00800           0   0.00000       0.00000    
       245 IM1H     13       IM1H     H3       HDA3A    0.135000       1.00800           0   0.00000       0.00000    
       246 IM1H     13       IM1H     N1       ND2R5C    1.71300       13.6070           0 -0.803000       1.00000    
       247 IM1H     13       IM1H     DN1      DRUD     -1.55500      0.400000           0   0.00000       0.00000    
       248 IM1H     13       IM1H     C2       CD2R5D    1.69890       11.6110           0  -1.08300       1.10000    
       249 IM1H     13       IM1H     DC2      DRUD     -1.80590      0.400000           0   0.00000       0.00000    
       250 IM1H     13       IM1H     H4       HDR5D    0.195000       1.00800           0   0.00000       0.00000    
       251 IM1H     13       IM1H     C3       CD2R5D    1.75890       11.6110           0  -1.08300       1.10000    
       252 IM1H     13       IM1H     DC3      DRUD     -1.80590      0.400000           0   0.00000       0.00000    
       253 IM1H     13       IM1H     H5       HDR5D    0.192000       1.00800           0   0.00000       0.00000    
       254 IM1H     13       IM1H     C4       CD2R5E    1.91950       11.6110           0  -1.25300       1.20000    
       255 IM1H     13       IM1H     DC4      DRUD     -1.94250      0.400000           0   0.00000       0.00000    
       256 IM1H     13       IM1H     H6       HDR5E    0.203000       1.00800           0   0.00000       0.00000    
       257 IM1H     13       IM1H     N2       ND2R5C    1.39800       13.6070           0 -0.803000       1.00000    
       258 IM1H     13       IM1H     DN2      DRUD     -1.55500      0.400000           0   0.00000       0.00000    
       259 IM1H     13       IM1H     H7       HDP1A    0.363000       1.00800           0   0.00000       0.00000    
       260 IM1H     13       IM1H     LPN21    LPD       0.00000       0.00000          -1   0.00000       0.00000    
       261 IM1H     14       IM1H     C1       CD33F     1.70390       11.6110           0  -1.18100       1.10000    
       262 IM1H     14       IM1H     DC1      DRUD     -1.88590      0.400000           0   0.00000       0.00000    
       263 IM1H     14       IM1H     H1       HDA3A    0.135000       1.00800           0   0.00000       0.00000    
       264 IM1H     14       IM1H     H2       HDA3A    0.135000       1.00800           0   0.00000       0.00000    
       265 IM1H     14       IM1H     H3       HDA3A    0.135000       1.00800           0   0.00000       0.00000    
       266 IM1H     14       IM1H     N1       ND2R5C    1.71300       13.6070           0 -0.803000       1.00000    
       267 IM1H     14       IM1H     DN1      DRUD     -1.55500      0.400000           0   0.00000       0.00000    
       268 IM1H     14       IM1H     C2       CD2R5D    1.69890       11.6110           0  -1.08300       1.10000    
       269 IM1H     14       IM1H     DC2      DRUD     -1.80590      0.400000           0   0.00000       0.00000    
       270 IM1H     14       IM1H     H4       HDR5D    0.195000       1.00800           0   0.00000       0.00000    
       271 IM1H     14       IM1H     C3       CD2R5D    1.75890       11.6110           0  -1.08300       1.10000    
       272 IM1H     14       IM1H     DC3      DRUD     -1.80590      0.400000           0   0.00000       0.00000    
       273 IM1H     14       IM1H     H5       HDR5D    0.192000       1.00800           0   0.00000       0.00000    
       274 IM1H     14       IM1H     C4       CD2R5E    1.91950       11.6110           0  -1.25300       1.20000    
       275 IM1H     14       IM1H     DC4      DRUD     -1.94250      0.400000           0   0.00000       0.00000    
       276 IM1H     14       IM1H     H6       HDR5E    0.203000       1.00800           0   0.00000       0.00000    
       277 IM1H     14       IM1H     N2       ND2R5C    1.39800       13.6070           0 -0.803000       1.00000    
       278 IM1H     14       IM1H     DN2      DRUD     -1.55500      0.400000           0   0.00000       0.00000    
       279 IM1H     14       IM1H     H7       HDP1A    0.363000       1.00800           0   0.00000       0.00000    
       280 IM1H     14       IM1H     LPN21    LPD       0.00000       0.00000          -1   0.00000       0.00000    
       281 IM1H     15       IM1H     C1       CD33F     1.70390       11.6110           0  -1.18100       1.10000    
       282 IM1H     15       IM1H     DC1      DRUD     -1.88590      0.400000           0   0.00000       0.00000    
       283 IM1H     15       IM1H     H1       HDA3A    0.135000       1.00800           0   0.00000       0.00000    
       284 IM1H     15       IM1H     H2       HDA3A    0.135000       1.00800           0   0.00000       0.00000    
       285 IM1H     15       IM1H     H3       HDA3A    0.135000       1.00800           0   0.00000       0.00000    
       286 IM1H     15       IM1H     N1       ND2R5C    1.71300       13.6070           0 -0.803000       1.00000    
       287 IM1H     15       IM1H     DN1      DRUD     -1.55500      0.400000           0   0.00000       0.00000    
       288 IM1H     15       IM1H     C2       CD2R5D    1.69890       11.6110           0  -1.08300       1.10000    
       289 IM1H     15       IM1H     DC2      DRUD     -1.80590      0.400000           0   0.00000       0.00000    
       290 IM1H     15       IM1H     H4       HDR5D    0.195000       1.00800           0   0.00000       0.00000    
       291 IM1H     15       IM1H     C3       CD2R5D    1.75890       11.6110           0  -1.08300       1.10000    
       292 IM1H     15       IM1H     DC3      DRUD     -1.80590      0.400000           0   0.00000       0.00000    
       293 IM1H     15       IM1H     H5       HDR5D    0.192000       1.00800           0   0.00000       0.00000    
       294 IM1H     15       IM1H     C4       CD2R5E    1.91950       11.6110           0  -1.25300       1.20000    
       295 IM1H     15       IM1H     DC4      DRUD     -1.94250      0.400000           0   0.00000       0.00000    
       296 IM1H     15       IM1H     H6       HDR5E    0.203000       1.00800           0   0.00000       0.00000    
       297 IM1H     15       IM1H     N2       ND2R5C    1.39800       13.6070           0 -0.803000       1.00000    
       298 IM1H     15       IM1H     DN2      DRUD     -1.55500      0.400000           0   0.00000       0.00000    
       299 IM1H     15       IM1H     H7       HDP1A    0.363000       1.00800           0   0.00000       0.00000    
       300 IM1H     15       IM1H     LPN21    LPD       0.00000       0.00000          -1   0.00000       0.00000    
       301 IM1H     16       IM1H     C1       CD33F     1.70390       11.6110           0  -1.18100       1.10000    
       302 IM1H     16       IM1H     DC1      DRUD     -1.88590      0.400000           0   0.00000       0.00000    
       303 IM1H     16       IM1H     H1       HDA3A    0.135000       1.00800           0   0.00000       0.00000    
       304 IM1H     16       IM1H     H2       HDA3A    0.135000       1.00800           0   0.00000       0.00000    
       305 IM1H     16       IM1H     H3       HDA3A    0.135000       1.00800           0   0.00000       0.00000    
       306 IM1H     16       IM1H     N1       ND2R5C    1.71300       13.6070           0 -0.803000       1.00000    
       307 IM1H     16       IM1H     DN1      DRUD     -1.55500      0.400000           0   0.00000       0.00000    
       308 IM1H     16       IM1H     C2       CD2R5D    1.69890       11.6110           0  -1.08300       1.10000    
       309 IM1H     16       IM1H     DC2      DRUD     -1.80590      0.400000           0   0.00000       0.00000    
       310 IM1H     16       IM1H     H4       HDR5D    0.195000       1.00800           0   0.00000       0.00000    
       311 IM1H     16       IM1H     C3       CD2R5D    1.75890       11.6110           0  -1.08300       1.10000    
       312 IM1H     16       IM1H     DC3      DRUD     -1.80590      0.400000           0   0.00000       0.00000    
       313 IM1H     16       IM1H     H5       HDR5D    0.192000       1.00800           0   0.00000       0.00000    
       314 IM1H     16       IM1H     C4       CD2R5E    1.91950       11.6110           0  -1.25300       1.20000    
       315 IM1H     16       IM1H     DC4      DRUD     -1.94250      0.400000           0   0.00000       0.00000    
       316 IM1H     16       IM1H     H6       HDR5E    0.203000       1.00800           0   0.00000       0.00000    
       317 IM1H     16       IM1H     N2       ND2R5C    1.39800       13.6070           0 -0.803000       1.00000    
       318 IM1H     16       IM1H     DN2      DRUD     -1.55500      0.400000           0   0.00000       0.00000    
       319 IM1H     16       IM1H     H7       HDP1A    0.363000       1.00800           0   0.00000       0.00000    
       320 IM1H     16       IM1H     LPN21    LPD       0.00000       0.00000          -1   0.00000       0.00000    
       321 IM1H     17       IM1H     C1       CD33F     1.70390       11.6110           0  -1.18100       1.10000    
       322 IM1H     17       IM1H     DC1      DRUD     -1.88590      0.400000           0   0.00000       0.00000    
       323 IM1H     17       IM1H     H1       HDA3A    0.135000       1.00800           0   0.00000       0.00000    
       324 IM1H     17       IM1H     H2       HDA3A    0.135000       1.00800           0   0.00000       0.00000    
       325 IM1H     17       IM1H     H3       HDA3A    0.135000       1.00800           0   0.00000       0.00000    
       326 IM1H     17       IM1H     N1       ND2R5C    1.71300       13.6070           0 -0.803000       1.00000    
       327 IM1H     17       IM1H     DN1      DRUD     -1.55500      0.400000           0   0.00000       0.00000    
       328 IM1H     17       IM1H     C2       CD2R5D    1.69890       11.6110           0  -1.08300       1.10000    
       329 IM1H     17       IM1H     DC2      DRUD     -1.80590      0.400000           0   0.00000       0.00000    
       330 IM1H     17       IM1H     H4       HDR5D    0.195000       1.00800           0   0.00000       0.00000    
       331 IM1H     17       IM1H     C3       CD2R5D    1.75890       11.6110           0  -1.08300       1.10000    
       332 IM1H     17       IM1H     DC3      DRUD     -1.80590      0.400000           0   0.00000       0.00000    
       333 IM1H     17       IM1H     H5       HDR5D    0.192000       1.00800           0   0.00000       0.00000    
       334 IM1H     17       IM1H     C4       CD2R5E    1.91950       11.6110           0  -1.25300       1.20000    
       335 IM1H     17       IM1H     DC4      DRUD     -1.94250      0.400000           0   0.00000       0.00000    
       336 IM1H     17       IM1H     H6       HDR5E    0.203000       1.00800           0   0.00000       0.00000    
       337 IM1H     17       IM1H     N2       ND2R5C    1.39800       13.6070           0 -0.803000       1.00000    
       338 IM1H     17       IM1H     DN2      DRUD     -1.55500      0.400000           0   0.00000       0.00000    
       339 IM1H     17       IM1H     H7       HDP1A    0.363000       1.00800           0   0.00000       0.00000    
       340 IM1H     17       IM1H     LPN21    LPD       0.00000       0.00000          -1   0.00000       0.00000    
       341 IM1H     18       IM1H     C1       CD33F     1.70390       11.6110           0  -1.18100       1.10000    
       342 IM1H     18       IM1H     DC1      DRUD     -1.88590      0.400000           0   0.00000       0.00000    
       343 IM1H     18       IM1H     H1       HDA3A    0.135000       1.00800           0   0.00000       0.00000    
       344 IM1H     18       IM1H     H2       HDA3A    0.135000       1.00800           0   0.00000       0.00000    
       345 IM1H     18       IM1H     H3       HDA3A    0.135000       1.00800           0   0.00000       0.00000    
       346 IM1H     18       IM1H     N1       ND2R5C    1.71300       13.6070           0 -0.803000       1.00000    
       347 IM1H     18       IM1H     DN1      DRUD     -1.55500      0.400000           0   0.00000       0.00000    
       348 IM1H     18       IM1H     C2       CD2R5D    1.69890       11.6110           0  -1.08300       1.10000    
       349 IM1H     18       IM1H     DC2      DRUD     -1.80590      0.400000           0   0.00000       0.00000    
       350 IM1H     18       IM1H     H4       HDR5D    0.195000       1.00800           0   0.00000       0.00000    
       351 IM1H     18       IM1H     C3       CD2R5D    1.75890       11.6110           0  -1.08300       1.10000    
       352 IM1H     18       IM1H     DC3      DRUD     -1.80590      0.400000           0   0.00000       0.00000    
       353 IM1H     18       IM1H     H5       HDR5D    0.192000       1.00800           0   0.00000       0.00000    
       354 IM1H     18       IM1H     C4       CD2R5E    1.91950       11.6110           0  -1.25300       1.20000    
       355 IM1H     18       IM1H     DC4      DRUD     -1.94250      0.400000           0   0.00000       0.00000    
       356 IM1H     18       IM1H     H6       HDR5E    0.203000       1.00800           0   0.00000       0.00000    
       357 IM1H     18       IM1H     N2       ND2R5C    1.39800       13.6070           0 -0.803000       1.00000    
       358 IM1H     18       IM1H     DN2      DRUD     -1.55500      0.400000           0   0.00000       0.00000    
       359 IM1H     18       IM1H     H7       HDP1A    0.363000       1.00800           0   0.00000       0.00000    
       360 IM1H     18       IM1H     LPN21    LPD       0.00000       0.00000          -1   0.00000       0.00000    
       361 IM1H     19       IM1H     C1       CD33F     1.70390       11.6110           0  -1.18100       1.10000    
       362 IM1H     19       IM1H     DC1      DRUD     -1.88590      0.400000           0   0.00000       0.00000    
       363 IM1H     19       IM1H     H1       HDA3A    0.135000       1.00800           0   0.00000       0.00000    
       364 IM1H     19       IM1H     H2       HDA3A    0.135000       1.00800           0   0.00000       0.00000    
       365 IM1H     19       IM1H     H3       HDA3A    0.135000       1.00800           0   0.00000       0.00000    
       366 IM1H     19       IM1H     N1       ND2R5C    1.71300       13.6070           0 -0.803000       1.00000    
       367 IM1H     19       IM1H     DN1      DRUD     -1.55500      0.400000           0   0.00000       0.00000    
       368 IM1H     19       IM1H     C2       CD2R5D    1.69890       11.6110           0  -1.08300       1.10000    
       369 IM1H     19       IM1H     DC2      DRUD     -1.80590      0.400000           0   0.00000       0.00000    
       370 IM1H     19       IM1H     H4       HDR5D    0.195000       1.00800           0   0.00000       0.00000    
       371 IM1H     19       IM1H     C3       CD2R5D    1.75890       11.6110           0  -1.08300       1.10000    
       372 IM1H     19       IM1H     DC3      DRUD     -1.80590      0.400000           0   0.00000       0.00000    
       373 IM1H     19       IM1H     H5       HDR5D    0.192000       1.00800           0   0.00000       0.00000    
       374 IM1H     19       IM1H     C4       CD2R5E    1.91950       11.6110           0  -1.25300       1.20000    
       375 IM1H     19       IM1H     DC4      DRUD     -1.94250      0.400000           0   0.00000       0.00000    
       376 IM1H     19       IM1H     H6       HDR5E    0.203000       1.00800           0   0.00000       0.00000    
       377 IM1H     19       IM1H     N2       ND2R5C    1.39800       13.6070           0 -0.803000       1.00000    
       378 IM1H     19       IM1H     DN2      DRUD     -1.55500      0.400000           0   0.00000       0.00000    
       379 IM1H     19       IM1H     H7       HDP1A    0.363000       1.00800           0   0.00000       0.00000    
       380 IM1H     19       IM1H     LPN21    LPD       0.00000       0.00000          -1   0.00000       0.00000    
       381 IM1H     20       IM1H     C1       CD33F     1.70390       11.6110           0  -1.18100       1.10000    
       382 IM1H     20       IM1H     DC1      DRUD     -1.88590      0.400000           0   0.00000       0.00000    
       383 IM1H     20       IM1H     H1       HDA3A    0.135000       1.00800           0   0.00000       0.00000    
       384 IM1H     20       IM1H     H2       HDA3A    0.135000       1.00800           0   0.00000       0.00000    
       385 IM1H     20       IM1H     H3       HDA3A    0.135000       1.00800           0   0.00000       0.00000    
       386 IM1H     20       IM1H     N1       ND2R5C    1.71300       13.6070           0 -0.803000       1.00000    
       387 IM1H     20       IM1H     DN1      DRUD     -1.55500      0.400000           0   0.00000       0.00000    
       388 IM1H     20       IM1H     C2       CD2R5D    1.69890       11.6110           0  -1.08300       1.10000    
       389 IM1H     20       IM1H     DC2      DRUD     -1.80590      0.400000           0   0.00000       0.00000    
       390 IM1H     20       IM1H     H4       HDR5D    0.195000       1.00800           0   0.00000       0.00000    
       391 IM1H     20       IM1H     C3       CD2R5D    1.75890       11.6110           0  -1.08300       1.10000    
       392 IM1H     20       IM1H     DC3      DRUD     -1.80590      0.400000           0   0.00000       0.00000    
       393 IM1H     20       IM1H     H5       HDR5D    0.192000       1.00800           0   0.00000       0.00000    
       394 IM1H     20       IM1H     C4       CD2R5E    1.91950       11.6110           0  -1.25300       1.20000    
       395 IM1H     20       IM1H     DC4      DRUD     -1.94250      0.400000           0   0.00000       0.00000    
       396 IM1H     20       IM1H     H6       HDR5E    0.203000       1.00800           0   0.00000       0.00000    
       397 IM1H     20       IM1H     N2       ND2R5C    1.39800       13.6070           0 -0.803000       1.00000    
       398 IM1H     20       IM1H     DN2      DRUD     -1.55500      0.400000           0   0.00000       0.00000    
       399 IM1H     20       IM1H     H7       HDP1A    0.363000       1.00800           0   0.00000       0.00000    
       400 IM1H     20       IM1H     LPN21    LPD       0.00000       0.00000          -1   0.00000       0.00000    
       401 IM1H     21       IM1H     C1       CD33F     1.70390       11.6110           0  -1.18100       1.10000    
       402 IM1H     21       IM1H     DC1      DRUD     -1.88590      0.400000           0   0.00000       0.00000    
       403 IM1H     21       IM1H     H1       HDA3A    0.135000       1.00800           0   0.00000       0.00000    
       404 IM1H     21       IM1H     H2       HDA3A    0.135000       1.00800           0   0.00000       0.00000    
       405 IM1H     21       IM1H     H3       HDA3A    0.135000       1.00800           0   0.00000       0.00000    
       406 IM1H     21       IM1H     N1       ND2R5C    1.71300       13.6070           0 -0.803000       1.00000    
       407 IM1H     21       IM1H     DN1      DRUD     -1.55500      0.400000           0   0.00000       0.00000    
       408 IM1H     21       IM1H     C2       CD2R5D    1.69890       11.6110           0  -1.08300       1.10000    
       409 IM1H     21       IM1H     DC2      DRUD     -1.80590      0.400000           0   0.00000       0.00000    
       410 IM1H     21       IM1H     H4       HDR5D    0.195000       1.00800           0   0.00000       0.00000    
       411 IM1H     21       IM1H     C3       CD2R5D    1.75890       11.6110           0  -1.08300       1.10000    
       412 IM1H     21       IM1H     DC3      DRUD     -1.80590      0.400000           0   0.00000       0.00000    
       413 IM1H     21       IM1H     H5       HDR5D    0.192000       1.00800           0   0.00000       0.00000    
       414 IM1H     21       IM1H     C4       CD2R5E    1.91950       11.6110           0  -1.25300       1.20000    
       415 IM1H     21       IM1H     DC4      DRUD     -1.94250      0.400000           0   0.00000       0.00000    
       416 IM1H     21       IM1H     H6       HDR5E    0.203000       1.00800           0   0.00000       0.00000    
       417 IM1H     21       IM1H     N2       ND2R5C    1.39800       13.6070           0 -0.803000       1.00000    
       418 IM1H     21       IM1H     DN2      DRUD     -1.55500      0.400000           0   0.00000       0.00000    
       419 IM1H     21       IM1H     H7       HDP1A    0.363000       1.00800           0   0.00000       0.00000    
       420 IM1H     21       IM1H     LPN21    LPD       0.00000       0.00000          -1   0.00000       0.00000    
       421 IM1H     22       IM1H     C1       CD33F     1.70390       11.6110           0  -1.18100       1.10000    
       422 IM1H     22       IM1H     DC1      DRUD     -1.88590      0.400000           0   0.00000       0.00000    
       423 IM1H     22       IM1H     H1       HDA3A    0.135000       1.00800           0   0.00000       0.00000    
       424 IM1H     22       IM1H     H2       HDA3A    0.135000       1.00800           0   0.00000       0.00000    
       425 IM1H     22       IM1H     H3       HDA3A    0.135000       1.00800           0   0.00000       0.00000    
       426 IM1H     22       IM1H     N1       ND2R5C    1.71300       13.6070           0 -0.803000       1.00000    
       427 IM1H     22       IM1H     DN1      DRUD     -1.55500      0.400000           0   0.00000       0.00000    
       428 IM1H     22       IM1H     C2       CD2R5D    1.69890       11.6110           0  -1.08300       1.10000    
       429 IM1H     22       IM1H     DC2      DRUD     -1.80590      0.400000           0   0.00000       0.00000    
       430 IM1H     22       IM1H     H4       HDR5D    0.195000       1.00800           0   0.00000       0.00000    
       431 IM1H     22       IM1H     C3       CD2R5D    1.75890       11.6110           0  -1.08300       1.10000    
       432 IM1H     22       IM1H     DC3      DRUD     -1.80590      0.400000           0   0.00000       0.00000    
       433 IM1H     22       IM1H     H5       HDR5D    0.192000       1.00800           0   0.00000       0.00000    
       434 IM1H     22       IM1H     C4       CD2R5E    1.91950       11.6110           0  -1.25300       1.20000    
       435 IM1H     22       IM1H     DC4      DRUD     -1.94250      0.400000           0   0.00000       0.00000    
       436 IM1H     22       IM1H     H6       HDR5E    0.203000       1.00800           0   0.00000       0.00000    
       437 IM1H     22       IM1H     N2       ND2R5C    1.39800       13.6070           0 -0.803000       1.00000    
       438 IM1H     22       IM1H     DN2      DRUD     -1.55500      0.400000           0   0.00000       0.00000    
       439 IM1H     22       IM1H     H7       HDP1A    0.363000       1.00800           0   0.00000       0.00000    
       440 IM1H     22       IM1H     LPN21    LPD       0.00000       0.00000          -1   0.00000       0.00000    
       441 IM1H     23       IM1H     C1       CD33F     1.70390       11.6110           0  -1.18100       1.10000    
       442 IM1H     23       IM1H     DC1      DRUD     -1.88590      0.400000           0   0.00000       0.00000    
       443 IM1H     23       IM1H     H1       HDA3A    0.135000       1.00800           0   0.00000       0.00000    
       444 IM1H     23       IM1H     H2       HDA3A    0.135000       1.00800           0   0.00000       0.00000    
       445 IM1H     23       IM1H     H3       HDA3A    0.135000       1.00800           0   0.00000       0.00000    
       446 IM1H     23       IM1H     N1       ND2R5C    1.71300       13.6070           0 -0.803000       1.00000    
       447 IM1H     23       IM1H     DN1      DRUD     -1.55500      0.400000           0   0.00000       0.00000    
       448 IM1H     23       IM1H     C2       CD2R5D    1.69890       11.6110           0  -1.08300       1.10000    
       449 IM1H     23       IM1H     DC2      DRUD     -1.80590      0.400000           0   0.00000       0.00000    
       450 IM1H     23       IM1H     H4       HDR5D    0.195000       1.00800           0   0.00000       0.00000    
       451 IM1H     23       IM1H     C3       CD2R5D    1.75890       11.6110           0  -1.08300       1.10000    
       452 IM1H     23       IM1H     DC3      DRUD     -1.80590      0.400000           0   0.00000       0.00000    
       453 IM1H     23       IM1H     H5       HDR5D    0.192000       1.00800           0   0.00000       0.00000    
       454 IM1H     23       IM1H     C4       CD2R5E    1.91950       11.6110           0  -1.25300       1.20000    
       455 IM1H     23       IM1H     DC4      DRUD     -1.94250      0.400000           0   0.00000       0.00000    
       456 IM1H     23       IM1H     H6       HDR5E    0.203000       1.00800           0   0.00000       0.00000    
       457 IM1H     23       IM1H     N2       ND2R5C    1.39800       13.6070           0 -0.803000       1.00000    
       458 IM1H     23       IM1H     DN2      DRUD     -1.55500      0.400000           0   0.00000       0.00000    
       459 IM1H     23       IM1H     H7       HDP1A    0.363000       1.00800           0   0.00000       0.00000    
       460 IM1H     23       IM1H     LPN21    LPD       0.00000       0.00000          -1   0.00000       0.00000    
       461 IM1H     24       IM1H     C1       CD33F     1.70390       11.6110           0  -1.18100       1.10000    
       462 IM1H     24       IM1H     DC1      DRUD     -1.88590      0.400000           0   0.00000       0.00000    
       463 IM1H     24       IM1H     H1       HDA3A    0.135000       1.00800           0   0.00000       0.00000    
       464 IM1H     24       IM1H     H2       HDA3A    0.135000       1.00800           0   0.00000       0.00000    
       465 IM1H     24       IM1H     H3       HDA3A    0.135000       1.00800           0   0.00000       0.00000    
       466 IM1H     24       IM1H     N1       ND2R5C    1.71300       13.6070           0 -0.803000       1.00000    
       467 IM1H     24       IM1H     DN1      DRUD     -1.55500      0.400000           0   0.00000       0.00000    
       468 IM1H     24       IM1H     C2       CD2R5D    1.69890       11.6110           0  -1.08300       1.10000    
       469 IM1H     24       IM1H     DC2      DRUD     -1.80590      0.400000           0   0.00000       0.00000    
       470 IM1H     24       IM1H     H4       HDR5D    0.195000       1.00800           0   0.00000       0.00000    
       471 IM1H     24       IM1H     C3       CD2R5D    1.75890       11.6110           0  -1.08300       1.10000    
       472 IM1H     24       IM1H     DC3      DRUD     -1.80590      0.400000           0   0.00000       0.00000    
       473 IM1H     24       IM1H     H5       HDR5D    0.192000       1.00800           0   0.00000       0.00000    
       474 IM1H     24       IM1H     C4       CD2R5E    1.91950       11.6110           0  -1.25300       1.20000    
       475 IM1H     24       IM1H     DC4      DRUD     -1.94250      0.400000           0   0.00000       0.00000    
       476 IM1H     24       IM1H     H6       HDR5E    0.203000       1.00800           0   0.00000       0.00000    
       477 IM1H     24       IM1H     N2       ND2R5C    1.39800       13.6070           0 -0.803000       1.00000    
       478 IM1H     24       IM1H     DN2      DRUD     -1.55500      0.400000           0   0.00000       0.00000    
       479 IM1H     24       IM1H     H7       HDP1A    0.363000       1.00800           0   0.00000       0.00000    
       480 IM1H     24       IM1H     LPN21    LPD       0.00000       0.00000          -1   0.00000       0.00000    
       481 IM1H     25       IM1H     C1       CD33F     1.70390       11.6110           0  -1.18100       1.10000    
       482 IM1H     25       IM1H     DC1      DRUD     -1.88590      0.400000           0   0.00000       0.00000    
       483 IM1H     25       IM1H     H1       HDA3A    0.135000       1.00800           0   0.00000       0.00000    
       484 IM1H     25       IM1H     H2       HDA3A    0.135000       1.00800           0   0.00000       0.00000    
       485 IM1H     25       IM1H     H3       HDA3A    0.135000       1.00800           0   0.00000       0.00000    
       486 IM1H     25       IM1H     N1       ND2R5C    1.71300       13.6070           0 -0.803000       1.00000    
       487 IM1H     25       IM1H     DN1      DRUD     -1.55500      0.400000           0   0.00000       0.00000    
       488 IM1H     25       IM1H     C2       CD2R5D    1.69890       11.6110           0  -1.08300       1.10000    
       489 IM1H     25       IM1H     DC2      DRUD     -1.80590      0.400000           0   0.00000       0.00000    
       490 IM1H     25       IM1H     H4       HDR5D    0.195000       1.00800           0   0.00000       0.00000    
       491 IM1H     25       IM1H     C3       CD2R5D    1.75890       11.6110           0  -1.08300       1.10000    
       492 IM1H     25       IM1H     DC3      DRUD     -1.80590      0.400000           0   0.00000       0.00000    
       493 IM1H     25       IM1H     H5       HDR5D    0.192000       1.00800           0   0.00000       0.00000    
       494 IM1H     25       IM1H     C4       CD2R5E    1.91950       11.6110           0  -1.25300       1.20000    
       495 IM1H     25       IM1H     DC4      DRUD     -1.94250      0.400000           0   0.00000       0.00000    
       496 IM1H     25       IM1H     H6       HDR5E    0.203000       1.00800           0   0.00000       0.00000    
       497 IM1H     25       IM1H     N2       ND2R5C    1.39800       13.6070           0 -0.803000       1.00000    
       498 IM1H     25       IM1H     DN2      DRUD     -1.55500      0.400000           0   0.00000       0.00000    
       499 IM1H     25       IM1H     H7       HDP1A    0.363000       1.00800           0   0.00000       0.00000    
       500 IM1H     25       IM1H     LPN21    LPD       0.00000       0.00000          -1   0.00000       0.00000    
       501 IM1H     26       IM1H     C1       CD33F     1.70390       11.6110           0  -1.18100       1.10000    
       502 IM1H     26       IM1H     DC1      DRUD     -1.88590      0.400000           0   0.00000       0.00000    
       503 IM1H     26       IM1H     H1       HDA3A    0.135000       1.00800           0   0.00000       0.00000    
       504 IM1H     26       IM1H     H2       HDA3A    0.135000       1.00800           0   0.00000       0.00000    
       505 IM1H     26       IM1H     H3       HDA3A    0.135000       1.00800           0   0.00000       0.00000    
       506 IM1H     26       IM1H     N1       ND2R5C    1.71300       13.6070           0 -0.803000       1.00000    
       507 IM1H     26       IM1H     DN1      DRUD     -1.55500      0.400000           0   0.00000       0.00000    
       508 IM1H     26       IM1H     C2       CD2R5D    1.69890       11.6110           0  -1.08300       1.10000    
       509 IM1H     26       IM1H     DC2      DRUD     -1.80590      0.400000           0   0.00000       0.00000    
       510 IM1H     26       IM1H     H4       HDR5D    0.195000       1.00800           0   0.00000       0.00000    
       511 IM1H     26       IM1H     C3       CD2R5D    1.75890       11.6110           0  -1.08300       1.10000    
       512 IM1H     26       IM1H     DC3      DRUD     -1.80590      0.400000           0   0.00000       0.00000    
       513 IM1H     26       IM1H     H5       HDR5D    0.192000       1.00800           0   0.00000       0.00000    
       514 IM1H     26       IM1H     C4       CD2R5E    1.91950       11.6110           0  -1.25300       1.20000    
       515 IM1H     26       IM1H     DC4      DRUD     -1.94250      0.400000           0   0.00000       0.00000    
       516 IM1H     26       IM1H     H6       HDR5E    0.203000       1.00800           0   0.00000       0.00000    
       517 IM1H     26       IM1H     N2       ND2R5C    1.39800       13.6070           0 -0.803000       1.00000    
       518 IM1H     26       IM1H     DN2      DRUD     -1.55500      0.400000           0   0.00000       0.00000    
       519 IM1H     26       IM1H     H7       HDP1A    0.363000       1.00800           0   0.00000       0.00000    
       520 IM1H     26       IM1H     LPN21    LPD       0.00000       0.00000          -1   0.00000       0.00000    
       521 IM1H     27       IM1H     C1       CD33F     1.70390       11.6110           0  -1.18100       1.10000    
       522 IM1H     27       IM1H     DC1      DRUD     -1.88590      0.400000           0   0.00000       0.00000    
       523 IM1H     27       IM1H     H1       HDA3A    0.135000       1.00800           0   0.00000       0.00000    
       524 IM1H     27       IM1H     H2       HDA3A    0.135000       1.00800           0   0.00000       0.00000    
       525 IM1H     27       IM1H     H3       HDA3A    0.135000       1.00800           0   0.00000       0.00000    
       526 IM1H     27       IM1H     N1       ND2R5C    1.71300       13.6070           0 -0.803000       1.00000    
       527 IM1H     27       IM1H     DN1      DRUD     -1.55500      0.400000           0   0.00000       0.00000    
       528 IM1H     27       IM1H     C2       CD2R5D    1.69890       11.6110           0  -1.08300       1.10000    
       529 IM1H     27       IM1H     DC2      DRUD     -1.80590      0.400000           0   0.00000       0.00000    
       530 IM1H     27       IM1H     H4       HDR5D    0.195000       1.00800           0   0.00000       0.00000    
       531 IM1H     27       IM1H     C3       CD2R5D    1.75890       11.6110           0  -1.08300       1.10000    
       532 IM1H     27       IM1H     DC3      DRUD     -1.80590      0.400000           0   0.00000       0.00000    
       533 IM1H     27       IM1H     H5       HDR5D    0.192000       1.00800           0   0.00000       0.00000    
       534 IM1H     27       IM1H     C4       CD2R5E    1.91950       11.6110           0  -1.25300       1.20000    
       535 IM1H     27       IM1H     DC4      DRUD     -1.94250      0.400000           0   0.00000       0.00000    
       536 IM1H     27       IM1H     H6       HDR5E    0.203000       1.00800           0   0.00000       0.00000    
       537 IM1H     27       IM1H     N2       ND2R5C    1.39800       13.6070           0 -0.803000       1.00000    
       538 IM1H     27       IM1H     DN2      DRUD     -1.55500      0.400000           0   0.00000       0.00000    
       539 IM1H     27       IM1H     H7       HDP1A    0.363000       1.00800           0   0.00000       0.00000    
       540 IM1H     27       IM1H     LPN21    LPD       0.00000       0.00000          -1   0.00000       0.00000    
       541 IM1H     28       IM1H     C1       CD33F     1.70390       11.6110           0  -1.18100       1.10000    
       542 IM1H     28       IM1H     DC1      DRUD     -1.88590      0.400000           0   0.00000       0.00000    
       543 IM1H     28       IM1H     H1       HDA3A    0.135000       1.00800           0   0.00000       0.00000    
       544 IM1H     28       IM1H     H2       HDA3A    0.135000       1.00800           0   0.00000       0.00000    
       545 IM1H     28       IM1H     H3       HDA3A    0.135000       1.00800           0   0.00000       0.00000    
       546 IM1H     28       IM1H     N1       ND2R5C    1.71300       13.6070           0 -0.803000       1.00000    
       547 IM1H     28       IM1H     DN1      DRUD     -1.55500      0.400000           0   0.00000       0.00000    
       548 IM1H     28       IM1H     C2       CD2R5D    1.69890       11.6110           0  -1.08300       1.10000    
       549 IM1H     28       IM1H     DC2      DRUD     -1.80590      0.400000           0   0.00000       0.00000    
       550 IM1H     28       IM1H     H4       HDR5D    0.195000       1.00800           0   0.00000       0.00000    
       551 IM1H     28       IM1H     C3       CD2R5D    1.75890       11.6110           0  -1.08300       1.10000    
       552 IM1H     28       IM1H     DC3      DRUD     -1.80590      0.400000           0   0.00000       0.00000    
       553 IM1H     28       IM1H     H5       HDR5D    0.192000       1.00800           0   0.00000       0.00000    
       554 IM1H     28       IM1H     C4       CD2R5E    1.91950       11.6110           0  -1.25300       1.20000    
       555 IM1H     28       IM1H     DC4      DRUD     -1.94250      0.400000           0   0.00000       0.00000    
       556 IM1H     28       IM1H     H6       HDR5E    0.203000       1.00800           0   0.00000       0.00000    
       557 IM1H     28       IM1H     N2       ND2R5C    1.39800       13.6070           0 -0.803000       1.00000    
       558 IM1H     28       IM1H     DN2      DRUD     -1.55500      0.400000           0   0.00000       0.00000    
       559 IM1H     28       IM1H     H7       HDP1A    0.363000       1.00800           0   0.00000       0.00000    
       560 IM1H     28       IM1H     LPN21    LPD       0.00000       0.00000          -1   0.00000       0.00000    
       561 IM1H     29       IM1H     C1       CD33F     1.70390       11.6110           0  -1.18100       1.10000    
       562 IM1H     29       IM1H     DC1      DRUD     -1.88590      0.400000           0   0.00000       0.00000    
       563 IM1H     29       IM1H     H1       HDA3A    0.135000       1.00800           0   0.00000       0.00000    
       564 IM1H     29       IM1H     H2       HDA3A    0.135000       1.00800           0   0.00000       0.00000    
       565 IM1H     29       IM1H     H3       HDA3A    0.135000       1.00800           0   0.00000       0.00000    
       566 IM1H     29       IM1H     N1       ND2R5C    1.71300       13.6070           0 -0.803000       1.00000    
       567 IM1H     29       IM1H     DN1      DRUD     -1.55500      0.400000           0   0.00000       0.00000    
       568 IM1H     29       IM1H     C2       CD2R5D    1.69890       11.6110           0  -1.08300       1.10000    
       569 IM1H     29       IM1H     DC2      DRUD     -1.80590      0.400000           0   0.00000       0.00000    
       570 IM1H     29       IM1H     H4       HDR5D    0.195000       1.00800           0   0.00000       0.00000    
       571 IM1H     29       IM1H     C3       CD2R5D    1.75890       11.6110           0  -1.08300       1.10000    
       572 IM1H     29       IM1H     DC3      DRUD     -1.80590      0.400000           0   0.00000       0.00000    
       573 IM1H     29       IM1H     H5       HDR5D    0.192000       1.00800           0   0.00000       0.00000    
       574 IM1H     29       IM1H     C4       CD2R5E    1.91950       11.6110           0  -1.25300       1.20000    
       575 IM1H     29       IM1H     DC4      DRUD     -1.94250      0.400000           0   0.00000       0.00000    
       576 IM1H     29       IM1H     H6       HDR5E    0.203000       1.00800           0   0.00000       0.00000    
       577 IM1H     29       IM1H     N2       ND2R5C    1.39800       13.6070           0 -0.803000       1.00000    
       578 IM1H     29       IM1H     DN2      DRUD     -1.55500      0.400000           0   0.00000       0.00000    
       579 IM1H     29       IM1H     H7       HDP1A    0.363000       1.00800           0   0.00000       0.00000    
       580 IM1H     29       IM1H     LPN21    LPD       0.00000       0.00000          -1   0.00000       0.00000    
       581 IM1H     30       IM1H     C1       CD33F     1.70390       11.6110           0  -1.18100       1.10000    
       582 IM1H     30       IM1H     DC1      DRUD     -1.88590      0.400000           0   0.00000       0.00000    
       583 IM1H     30       IM1H     H1       HDA3A    0.135000       1.00800           0   0.00000       0.00000    
       584 IM1H     30       IM1H     H2       HDA3A    0.135000       1.00800           0   0.00000       0.00000    
       585 IM1H     30       IM1H     H3       HDA3A    0.135000       1.00800           0   0.00000       0.00000    
       586 IM1H     30       IM1H     N1       ND2R5C    1.71300       13.6070           0 -0.803000       1.00000    
       587 IM1H     30       IM1H     DN1      DRUD     -1.55500      0.400000           0   0.00000       0.00000    
       588 IM1H     30       IM1H     C2       CD2R5D    1.69890       11.6110           0  -1.08300       1.10000    
       589 IM1H     30       IM1H     DC2      DRUD     -1.80590      0.400000           0   0.00000       0.00000    
       590 IM1H     30       IM1H     H4       HDR5D    0.195000       1.00800           0   0.00000       0.00000    
       591 IM1H     30       IM1H     C3       CD2R5D    1.75890       11.6110           0  -1.08300       1.10000    
       592 IM1H     30       IM1H     DC3      DRUD     -1.80590      0.400000           0   0.00000       0.00000    
       593 IM1H     30       IM1H     H5       HDR5D    0.192000       1.00800           0   0.00000       0.00000    
       594 IM1H     30       IM1H     C4       CD2R5E    1.91950       11.6110           0  -1.25300       1.20000    
       595 IM1H     30       IM1H     DC4      DRUD     -1.94250      0.400000           0   0.00000       0.00000    
       596 IM1H     30       IM1H     H6       HDR5E    0.203000       1.00800           0   0.00000       0.00000    
       597 IM1H     30       IM1H     N2       ND2R5C    1.39800       13.6070           0 -0.803000       1.00000    
       598 IM1H     30       IM1H     DN2      DRUD     -1.55500      0.400000           0   0.00000       0.00000    
       599 IM1H     30       IM1H     H7       HDP1A    0.363000       1.00800           0   0.00000       0.00000    
       600 IM1H     30       IM1H     LPN21    LPD       0.00000       0.00000          -1   0.00000       0.00000    
       601 IM1H     31       IM1H     C1       CD33F     1.70390       11.6110           0  -1.18100       1.10000    
       602 IM1H     31       IM1H     DC1      DRUD     -1.88590      0.400000           0   0.00000       0.00000    
       603 IM1H     31       IM1H     H1       HDA3A    0.135000       1.00800           0   0.00000       0.00000    
       604 IM1H     31       IM1H     H2       HDA3A    0.135000       1.00800           0   0.00000       0.00000    
       605 IM1H     31       IM1H     H3       HDA3A    0.135000       1.00800           0   0.00000       0.00000    
       606 IM1H     31       IM1H     N1       ND2R5C    1.71300       13.6070           0 -0.803000       1.00000    
       607 IM1H     31       IM1H     DN1      DRUD     -1.55500      0.400000           0   0.00000       0.00000    
       608 IM1H     31       IM1H     C2       CD2R5D    1.69890       11.6110           0  -1.08300       1.10000    
       609 IM1H     31       IM1H     DC2      DRUD     -1.80590      0.400000           0   0.00000       0.00000    
       610 IM1H     31       IM1H     H4       HDR5D    0.195000       1.00800           0   0.00000       0.00000    
       611 IM1H     31       IM1H     C3       CD2R5D    1.75890       11.6110           0  -1.08300       1.10000    
       612 IM1H     31       IM1H     DC3      DRUD     -1.80590      0.400000           0   0.00000       0.00000    
       613 IM1H     31       IM1H     H5       HDR5D    0.192000       1.00800           0   0.00000       0.00000    
       614 IM1H     31       IM1H     C4       CD2R5E    1.91950       11.6110           0  -1.25300       1.20000    
       615 IM1H     31       IM1H     DC4      DRUD     -1.94250      0.400000           0   0.00000       0.00000    
       616 IM1H     31       IM1H     H6       HDR5E    0.203000       1.00800           0   0.00000       0.00000    
       617 IM1H     31       IM1H     N2       ND2R5C    1.39800       13.6070           0 -0.803000       1.00000    
       618 IM1H     31       IM1H     DN2      DRUD     -1.55500      0.400000           0   0.00000       0.00000    
       619 IM1H     31       IM1H     H7       HDP1A    0.363000       1.00800           0   0.00000       0.00000    
       620 IM1H     31       IM1H     LPN21    LPD       0.00000       0.00000          -1   0.00000       0.00000    
       621 IM1H     32       IM1H     C1       CD33F     1.70390       11.6110           0  -1.18100       1.10000    
       622 IM1H     32       IM1H     DC1      DRUD     -1.88590      0.400000           0   0.00000       0.00000    
       623 IM1H     32       IM1H     H1       HDA3A    0.135000       1.00800           0   0.00000       0.00000    
       624 IM1H     32       IM1H     H2       HDA3A    0.135000       1.00800           0   0.00000       0.00000    
       625 IM1H     32       IM1H     H3       HDA3A    0.135000       1.00800           0   0.00000       0.00000    
       626 IM1H     32       IM1H     N1       ND2R5C    1.71300       13.6070           0 -0.803000       1.00000    
       627 IM1H     32       IM1H     DN1      DRUD     -1.55500      0.400000           0   0.00000       0.00000    
       628 IM1H     32       IM1H     C2       CD2R5D    1.69890       11.6110           0  -1.08300       1.10000    
       629 IM1H     32       IM1H     DC2      DRUD     -1.80590      0.400000           0   0.00000       0.00000    
       630 IM1H     32       IM1H     H4       HDR5D    0.195000       1.00800           0   0.00000       0.00000    
       631 IM1H     32       IM1H     C3       CD2R5D    1.75890       11.6110           0  -1.08300       1.10000    
       632 IM1H     32       IM1H     DC3      DRUD     -1.80590      0.400000           0   0.00000       0.00000    
       633 IM1H     32       IM1H     H5       HDR5D    0.192000       1.00800           0   0.00000       0.00000    
       634 IM1H     32       IM1H     C4       CD2R5E    1.91950       11.6110           0  -1.25300       1.20000    
       635 IM1H     32       IM1H     DC4      DRUD     -1.94250      0.400000           0   0.00000       0.00000    
       636 IM1H     32       IM1H     H6       HDR5E    0.203000       1.00800           0   0.00000       0.00000    
       637 IM1H     32       IM1H     N2       ND2R5C    1.39800       13.6070           0 -0.803000       1.00000    
       638 IM1H     32       IM1H     DN2      DRUD     -1.55500      0.400000           0   0.00000       0.00000    
       639 IM1H     32       IM1H     H7       HDP1A    0.363000       1.00800           0   0.00000       0.00000    
       640 IM1H     32       IM1H     LPN21    LPD       0.00000       0.00000          -1   0.00000       0.00000    
       641 IM1H     33       IM1H     C1       CD33F     1.70390       11.6110           0  -1.18100       1.10000    
       642 IM1H     33       IM1H     DC1      DRUD     -1.88590      0.400000           0   0.00000       0.00000    
       643 IM1H     33       IM1H     H1       HDA3A    0.135000       1.00800           0   0.00000       0.00000    
       644 IM1H     33       IM1H     H2       HDA3A    0.135000       1.00800           0   0.00000       0.00000    
       645 IM1H     33       IM1H     H3       HDA3A    0.135000       1.00800           0   0.00000       0.00000    
       646 IM1H     33       IM1H     N1       ND2R5C    1.71300       13.6070           0 -0.803000       1.00000    
       647 IM1H     33       IM1H     DN1      DRUD     -1.55500      0.400000           0   0.00000       0.00000    
       648 IM1H     33       IM1H     C2       CD2R5D    1.69890       11.6110           0  -1.08300       1.10000    
       649 IM1H     33       IM1H     DC2      DRUD     -1.80590      0.400000           0   0.00000       0.00000    
       650 IM1H     33       IM1H     H4       HDR5D    0.195000       1.00800           0   0.00000       0.00000    
       651 IM1H     33       IM1H     C3       CD2R5D    1.75890       11.6110           0  -1.08300       1.10000    
       652 IM1H     33       IM1H     DC3      DRUD     -1.80590      0.400000           0   0.00000       0.00000    
       653 IM1H     33       IM1H     H5       HDR5D    0.192000       1.00800           0   0.00000       0.00000    
       654 IM1H     33       IM1H     C4       CD2R5E    1.91950       11.6110           0  -1.25300       1.20000    
       655 IM1H     33       IM1H     DC4      DRUD     -1.94250      0.400000           0   0.00000       0.00000    
       656 IM1H     33       IM1H     H6       HDR5E    0.203000       1.00800           0   0.00000       0.00000    
       657 IM1H     33       IM1H     N2       ND2R5C    1.39800       13.6070           0 -0.803000       1.00000    
       658 IM1H     33       IM1H     DN2      DRUD     -1.55500      0.400000           0   0.00000       0.00000    
       659 IM1H     33       IM1H     H7       HDP1A    0.363000       1.00800           0   0.00000       0.00000    
       660 IM1H     33       IM1H     LPN21    LPD       0.00000       0.00000          -1   0.00000       0.00000    
       661 IM1H     34       IM1H     C1       CD33F     1.70390       11.6110           0  -1.18100       1.10000    
       662 IM1H     34       IM1H     DC1      DRUD     -1.88590      0.400000           0   0.00000       0.00000    
       663 IM1H     34       IM1H     H1       HDA3A    0.135000       1.00800           0   0.00000       0.00000    
       664 IM1H     34       IM1H     H2       HDA3A    0.135000       1.00800           0   0.00000       0.00000    
       665 IM1H     34       IM1H     H3       HDA3A    0.135000       1.00800           0   0.00000       0.00000    
       666 IM1H     34       IM1H     N1       ND2R5C    1.71300       13.6070           0 -0.803000       1.00000    
       667 IM1H     34       IM1H     DN1      DRUD     -1.55500      0.400000           0   0.00000       0.00000    
       668 IM1H     34       IM1H     C2       CD2R5D    1.69890       11.6110           0  -1.08300       1.10000    
       669 IM1H     34       IM1H     DC2      DRUD     -1.80590      0.400000           0   0.00000       0.00000    
       670 IM1H     34       IM1H     H4       HDR5D    0.195000       1.00800           0   0.00000       0.00000    
       671 IM1H     34       IM1H     C3       CD2R5D    1.75890       11.6110           0  -1.08300       1.10000    
       672 IM1H     34       IM1H     DC3      DRUD     -1.80590      0.400000           0   0.00000       0.00000    
       673 IM1H     34       IM1H     H5       HDR5D    0.192000       1.00800           0   0.00000       0.00000    
       674 IM1H     34       IM1H     C4       CD2R5E    1.91950       11.6110           0  -1.25300       1.20000    
       675 IM1H     34       IM1H     DC4      DRUD     -1.94250      0.400000           0   0.00000       0.00000    
       676 IM1H     34       IM1H     H6       HDR5E    0.203000       1.00800           0   0.00000       0.00000    
       677 IM1H     34       IM1H     N2       ND2R5C    1.39800       13.6070           0 -0.803000       1.00000    
       678 IM1H     34       IM1H     DN2      DRUD     -1.55500      0.400000           0   0.00000       0.00000    
       679 IM1H     34       IM1H     H7       HDP1A    0.363000       1.00800           0   0.00000       0.00000    
       680 IM1H     34       IM1H     LPN21    LPD       0.00000       0.00000          -1   0.00000       0.00000    
       681 IM1H     35       IM1H     C1       CD33F     1.70390       11.6110           0  -1.18100       1.10000    
       682 IM1H     35       IM1H     DC1      DRUD     -1.88590      0.400000           0   0.00000       0.00000    
       683 IM1H     35       IM1H     H1       HDA3A    0.135000       1.00800           0   0.00000       0.00000    
       684 IM1H     35       IM1H     H2       HDA3A    0.135000       1.00800           0   0.00000       0.00000    
       685 IM1H     35       IM1H     H3       HDA3A    0.135000       1.00800           0   0.00000       0.00000    
       686 IM1H     35       IM1H     N1       ND2R5C    1.71300       13.6070           0 -0.803000       1.00000    
       687 IM1H     35       IM1H     DN1      DRUD     -1.55500      0.400000           0   0.00000       0.00000    
       688 IM1H     35       IM1H     C2       CD2R5D    1.69890       11.6110           0  -1.08300       1.10000    
       689 IM1H     35       IM1H     DC2      DRUD     -1.80590      0.400000           0   0.00000       0.00000    
       690 IM1H     35       IM1H     H4       HDR5D    0.195000       1.00800           0   0.00000       0.00000    
       691 IM1H     35       IM1H     C3       CD2R5D    1.75890       11.6110           0  -1.08300       1.10000    
       692 IM1H     35       IM1H     DC3      DRUD     -1.80590      0.400000           0   0.00000       0.00000    
       693 IM1H     35       IM1H     H5       HDR5D    0.192000       1.00800           0   0.00000       0.00000    
       694 IM1H     35       IM1H     C4       CD2R5E    1.91950       11.6110           0  -1.25300       1.20000    
       695 IM1H     35       IM1H     DC4      DRUD     -1.94250      0.400000           0   0.00000       0.00000    
       696 IM1H     35       IM1H     H6       HDR5E    0.203000       1.00800           0   0.00000       0.00000    
       697 IM1H     35       IM1H     N2       ND2R5C    1.39800       13.6070           0 -0.803000       1.00000    
       698 IM1H     35       IM1H     DN2      DRUD     -1.55500      0.400000           0   0.00000       0.00000    
       699 IM1H     35       IM1H     H7       HDP1A    0.363000       1.00800           0   0.00000       0.00000    
       700 IM1H     35       IM1H     LPN21    LPD       0.00000       0.00000          -1   0.00000       0.00000    
       701 IM1H     36       IM1H     C1       CD33F     1.70390       11.6110           0  -1.18100       1.10000    
       702 IM1H     36       IM1H     DC1      DRUD     -1.88590      0.400000           0   0.00000       0.00000    
       703 IM1H     36       IM1H     H1       HDA3A    0.135000       1.00800           0   0.00000       0.00000    
       704 IM1H     36       IM1H     H2       HDA3A    0.135000       1.00800           0   0.00000       0.00000    
       705 IM1H     36       IM1H     H3       HDA3A    0.135000       1.00800           0   0.00000       0.00000    
       706 IM1H     36       IM1H     N1       ND2R5C    1.71300       13.6070           0 -0.803000       1.00000    
       707 IM1H     36       IM1H     DN1      DRUD     -1.55500      0.400000           0   0.00000       0.00000    
       708 IM1H     36       IM1H     C2       CD2R5D    1.69890       11.6110           0  -1.08300       1.10000    
       709 IM1H     36       IM1H     DC2      DRUD     -1.80590      0.400000           0   0.00000       0.00000    
       710 IM1H     36       IM1H     H4       HDR5D    0.195000       1.00800           0   0.00000       0.00000    
       711 IM1H     36       IM1H     C3       CD2R5D    1.75890       11.6110           0  -1.08300       1.10000    
       712 IM1H     36       IM1H     DC3      DRUD     -1.80590      0.400000           0   0.00000       0.00000    
       713 IM1H     36       IM1H     H5       HDR5D    0.192000       1.00800           0   0.00000       0.00000    
       714 IM1H     36       IM1H     C4       CD2R5E    1.91950       11.6110           0  -1.25300       1.20000    
       715 IM1H     36       IM1H     DC4      DRUD     -1.94250      0.400000           0   0.00000       0.00000    
       716 IM1H     36       IM1H     H6       HDR5E    0.203000       1.00800           0   0.00000       0.00000    
       717 IM1H     36       IM1H     N2       ND2R5C    1.39800       13.6070           0 -0.803000       1.00000    
       718 IM1H     36       IM1H     DN2      DRUD     -1.55500      0.400000           0   0.00000       0.00000    
       719 IM1H     36       IM1H     H7       HDP1A    0.363000       1.00800           0   0.00000       0.00000    
       720 IM1H     36       IM1H     LPN21    LPD       0.00000       0.00000          -1   0.00000       0.00000    
       721 IM1H     37       IM1H     C1       CD33F     1.70390       11.6110           0  -1.18100       1.10000    
       722 IM1H     37       IM1H     DC1      DRUD     -1.88590      0.400000           0   0.00000       0.00000    
       723 IM1H     37       IM1H     H1       HDA3A    0.135000       1.00800           0   0.00000       0.00000    
       724 IM1H     37       IM1H     H2       HDA3A    0.135000       1.00800           0   0.00000       0.00000    
       725 IM1H     37       IM1H     H3       HDA3A    0.135000       1.00800           0   0.00000       0.00000    
       726 IM1H     37       IM1H     N1       ND2R5C    1.71300       13.6070           0 -0.803000       1.00000    
       727 IM1H     37       IM1H     DN1      DRUD     -1.55500      0.400000           0   0.00000       0.00000    
       728 IM1H     37       IM1H     C2       CD2R5D    1.69890       11.6110           0  -1.08300       1.10000    
       729 IM1H     37       IM1H     DC2      DRUD     -1.80590      0.400000           0   0.00000       0.00000    
       730 IM1H     37       IM1H     H4       HDR5D    0.195000       1.00800           0   0.00000       0.00000    
       731 IM1H     37       IM1H     C3       CD2R5D    1.75890       11.6110           0  -1.08300       1.10000    
       732 IM1H     37       IM1H     DC3      DRUD     -1.80590      0.400000           0   0.00000       0.00000    
       733 IM1H     37       IM1H     H5       HDR5D    0.192000       1.00800           0   0.00000       0.00000    
       734 IM1H     37       IM1H     C4       CD2R5E    1.91950       11.6110           0  -1.25300       1.20000    
       735 IM1H     37       IM1H     DC4      DRUD     -1.94250      0.400000           0   0.00000       0.00000    
       736 IM1H     37       IM1H     H6       HDR5E    0.203000       1.00800           0   0.00000       0.00000    
       737 IM1H     37       IM1H     N2       ND2R5C    1.39800       13.6070           0 -0.803000       1.00000    
       738 IM1H     37       IM1H     DN2      DRUD     -1.55500      0.400000           0   0.00000       0.00000    
       739 IM1H     37       IM1H     H7       HDP1A    0.363000       1.00800           0   0.00000       0.00000    
       740 IM1H     37       IM1H     LPN21    LPD       0.00000       0.00000          -1   0.00000       0.00000    
       741 IM1H     38       IM1H     C1       CD33F     1.70390       11.6110           0  -1.18100       1.10000    
       742 IM1H     38       IM1H     DC1      DRUD     -1.88590      0.400000           0   0.00000       0.00000    
       743 IM1H     38       IM1H     H1       HDA3A    0.135000       1.00800           0   0.00000       0.00000    
       744 IM1H     38       IM1H     H2       HDA3A    0.135000       1.00800           0   0.00000       0.00000    
       745 IM1H     38       IM1H     H3       HDA3A    0.135000       1.00800           0   0.00000       0.00000    
       746 IM1H     38       IM1H     N1       ND2R5C    1.71300       13.6070           0 -0.803000       1.00000    
       747 IM1H     38       IM1H     DN1      DRUD     -1.55500      0.400000           0   0.00000       0.00000    
       748 IM1H     38       IM1H     C2       CD2R5D    1.69890       11.6110           0  -1.08300       1.10000    
       749 IM1H     38       IM1H     DC2      DRUD     -1.80590      0.400000           0   0.00000       0.00000    
       750 IM1H     38       IM1H     H4       HDR5D    0.195000       1.00800           0   0.00000       0.00000    
       751 IM1H     38       IM1H     C3       CD2R5D    1.75890       11.6110           0  -1.08300       1.10000    
       752 IM1H     38       IM1H     DC3      DRUD     -1.80590      0.400000           0   0.00000       0.00000    
       753 IM1H     38       IM1H     H5       HDR5D    0.192000       1.00800           0   0.00000       0.00000    
       754 IM1H     38       IM1H     C4       CD2R5E    1.91950       11.6110           0  -1.25300       1.20000    
       755 IM1H     38       IM1H     DC4      DRUD     -1.94250      0.400000           0   0.00000       0.00000    
       756 IM1H     38       IM1H     H6       HDR5E    0.203000       1.00800           0   0.00000       0.00000    
       757 IM1H     38       IM1H     N2       ND2R5C    1.39800       13.6070           0 -0.803000       1.00000    
       758 IM1H     38       IM1H     DN2      DRUD     -1.55500      0.400000           0   0.00000       0.00000    
       759 IM1H     38       IM1H     H7       HDP1A    0.363000       1.00800           0   0.00000       0.00000    
       760 IM1H     38       IM1H     LPN21    LPD       0.00000       0.00000          -1   0.00000       0.00000    
       761 IM1H     39       IM1H     C1       CD33F     1.70390       11.6110           0  -1.18100       1.10000    
       762 IM1H     39       IM1H     DC1      DRUD     -1.88590      0.400000           0   0.00000       0.00000    
       763 IM1H     39       IM1H     H1       HDA3A    0.135000       1.00800           0   0.00000       0.00000    
       764 IM1H     39       IM1H     H2       HDA3A    0.135000       1.00800           0   0.00000       0.00000    
       765 IM1H     39       IM1H     H3       HDA3A    0.135000       1.00800           0   0.00000       0.00000    
       766 IM1H     39       IM1H     N1       ND2R5C    1.71300       13.6070           0 -0.803000       1.00000    
       767 IM1H     39       IM1H     DN1      DRUD     -1.55500      0.400000           0   0.00000       0.00000    
       768 IM1H     39       IM1H     C2       CD2R5D    1.69890       11.6110           0  -1.08300       1.10000    
       769 IM1H     39       IM1H     DC2      DRUD     -1.80590      0.400000           0   0.00000       0.00000    
       770 IM1H     39       IM1H     H4       HDR5D    0.195000       1.00800           0   0.00000       0.00000    
       771 IM1H     39       IM1H     C3       CD2R5D    1.75890       11.6110           0  -1.08300       1.10000    
       772 IM1H     39       IM1H     DC3      DRUD     -1.80590      0.400000           0   0.00000       0.00000    
       773 IM1H     39       IM1H     H5       HDR5D    0.192000       1.00800           0   0.00000       0.00000    
       774 IM1H     39       IM1H     C4       CD2R5E    1.91950       11.6110           0  -1.25300       1.20000    
       775 IM1H     39       IM1H     DC4      DRUD     -1.94250      0.400000           0   0.00000       0.00000    
       776 IM1H     39       IM1H     H6       HDR5E    0.203000       1.00800           0   0.00000       0.00000    
       777 IM1H     39       IM1H     N2       ND2R5C    1.39800       13.6070           0 -0.803000       1.00000    
       778 IM1H     39       IM1H     DN2      DRUD     -1.55500      0.400000           0   0.00000       0.00000    
       779 IM1H     39       IM1H     H7       HDP1A    0.363000       1.00800           0   0.00000       0.00000    
       780 IM1H     39       IM1H     LPN21    LPD       0.00000       0.00000          -1   0.00000       0.00000    
       781 IM1H     40       IM1H     C1       CD33F     1.70390       11.6110           0  -1.18100       1.10000    
       782 IM1H     40       IM1H     DC1      DRUD     -1.88590      0.400000           0   0.00000       0.00000    
       783 IM1H     40       IM1H     H1       HDA3A    0.135000       1.00800           0   0.00000       0.00000    
       784 IM1H     40       IM1H     H2       HDA3A    0.135000       1.00800           0   0.00000       0.00000    
       785 IM1H     40       IM1H     H3       HDA3A    0.135000       1.00800           0   0.00000       0.00000    
       786 IM1H     40       IM1H     N1       ND2R5C    1.71300       13.6070           0 -0.803000       1.00000    
       787 IM1H     40       IM1H     DN1      DRUD     -1.55500      0.400000           0   0.00000       0.00000    
       788 IM1H     40       IM1H     C2       CD2R5D    1.69890       11.6110           0  -1.08300       1.10000    
       789 IM1H     40       IM1H     DC2      DRUD     -1.80590      0.400000           0   0.00000       0.00000    
       790 IM1H     40       IM1H     H4       HDR5D    0.195000       1.00800           0   0.00000       0.00000    
       791 IM1H     40       IM1H     C3       CD2R5D    1.75890       11.6110           0  -1.08300       1.10000    
       792 IM1H     40       IM1H     DC3      DRUD     -1.80590      0.400000           0   0.00000       0.00000    
       793 IM1H     40       IM1H     H5       HDR5D    0.192000       1.00800           0   0.00000       0.00000    
       794 IM1H     40       IM1H     C4       CD2R5E    1.91950       11.6110           0  -1.25300       1.20000    
       795 IM1H     40       IM1H     DC4      DRUD     -1.94250      0.400000           0   0.00000       0.00000    
       796 IM1H     40       IM1H     H6       HDR5E    0.203000       1.00800           0   0.00000       0.00000    
       797 IM1H     40       IM1H     N2       ND2R5C    1.39800       13.6070           0 -0.803000       1.00000    
       798 IM1H     40       IM1H     DN2      DRUD     -1.55500      0.400000           0   0.00000       0.00000    
       799 IM1H     40       IM1H     H7       HDP1A    0.363000       1.00800           0   0.00000       0.00000    
       800 IM1H     40       IM1H     LPN21    LPD       0.00000       0.00000          -1   0.00000       0.00000    
       801 IM1H     41       IM1H     C1       CD33F     1.70390       11.6110           0  -1.18100       1.10000    
       802 IM1H     41       IM1H     DC1      DRUD     -1.88590      0.400000           0   0.00000       0.00000    
       803 IM1H     41       IM1H     H1       HDA3A    0.135000       1.00800           0   0.00000       0.00000    
       804 IM1H     41       IM1H     H2       HDA3A    0.135000       1.00800           0   0.00000       0.00000    
       805 IM1H     41       IM1H     H3       HDA3A    0.135000       1.00800           0   0.00000       0.00000    
       806 IM1H     41       IM1H     N1       ND2R5C    1.71300       13.6070           0 -0.803000       1.00000    
       807 IM1H     41       IM1H     DN1      DRUD     -1.55500      0.400000           0   0.00000       0.00000    
       808 IM1H     41       IM1H     C2       CD2R5D    1.69890       11.6110           0  -1.08300       1.10000    
       809 IM1H     41       IM1H     DC2      DRUD     -1.80590      0.400000           0   0.00000       0.00000    
       810 IM1H     41       IM1H     H4       HDR5D    0.195000       1.00800           0   0.00000       0.00000    
       811 IM1H     41       IM1H     C3       CD2R5D    1.75890       11.6110           0  -1.08300       1.10000    
       812 IM1H     41       IM1H     DC3      DRUD     -1.80590      0.400000           0   0.00000       0.00000    
       813 IM1H     41       IM1H     H5       HDR5D    0.192000       1.00800           0   0.00000       0.00000    
       814 IM1H     41       IM1H     C4       CD2R5E    1.91950       11.6110           0  -1.25300       1.20000    
       815 IM1H     41       IM1H     DC4      DRUD     -1.94250      0.400000           0   0.00000       0.00000    
       816 IM1H     41       IM1H     H6       HDR5E    0.203000       1.00800           0   0.00000       0.00000    
       817 IM1H     41       IM1H     N2       ND2R5C    1.39800       13.6070           0 -0.803000       1.00000    
       818 IM1H     41       IM1H     DN2      DRUD     -1.55500      0.400000           0   0.00000       0.00000    
       819 IM1H     41       IM1H     H7       HDP1A    0.363000       1.00800           0   0.00000       0.00000    
       820 IM1H     41       IM1H     LPN21    LPD       0.00000       0.00000          -1   0.00000       0.00000    
       821 IM1H     42       IM1H     C1       CD33F     1.70390       11.6110           0  -1.18100       1.10000    
       822 IM1H     42       IM1H     DC1      DRUD     -1.88590      0.400000           0   0.00000       0.00000    
       823 IM1H     42       IM1H     H1       HDA3A    0.135000       1.00800           0   0.00000       0.00000    
       824 IM1H     42       IM1H     H2       HDA3A    0.135000       1.00800           0   0.00000       0.00000    
       825 IM1H     42       IM1H     H3       HDA3A    0.135000       1.00800           0   0.00000       0.00000    
       826 IM1H     42       IM1H     N1       ND2R5C    1.71300       13.6070           0 -0.803000       1.00000    
       827 IM1H     42       IM1H     DN1      DRUD     -1.55500      0.400000           0   0.00000       0.00000    
       828 IM1H     42       IM1H     C2       CD2R5D    1.69890       11.6110           0  -1.08300       1.10000    
       829 IM1H     42       IM1H     DC2      DRUD     -1.80590      0.400000           0   0.00000       0.00000    
       830 IM1H     42       IM1H     H4       HDR5D    0.195000       1.00800           0   0.00000       0.00000    
       831 IM1H     42       IM1H     C3       CD2R5D    1.75890       11.6110           0  -1.08300       1.10000    
       832 IM1H     42       IM1H     DC3      DRUD     -1.80590      0.400000           0   0.00000       0.00000    
       833 IM1H     42       IM1H     H5       HDR5D    0.192000       1.00800           0   0.00000       0.00000    
       834 IM1H     42       IM1H     C4       CD2R5E    1.91950       11.6110           0  -1.25300       1.20000    
       835 IM1H     42       IM1H     DC4      DRUD     -1.94250      0.400000           0   0.00000       0.00000    
       836 IM1H     42       IM1H     H6       HDR5E    0.203000       1.00800           0   0.00000       0.00000    
       837 IM1H     42       IM1H     N2       ND2R5C    1.39800       13.6070           0 -0.803000       1.00000    
       838 IM1H     42       IM1H     DN2      DRUD     -1.55500      0.400000           0   0.00000       0.00000    
       839 IM1H     42       IM1H     H7       HDP1A    0.363000       1.00800           0   0.00000       0.00000    
       840 IM1H     42       IM1H     LPN21    LPD       0.00000       0.00000          -1   0.00000       0.00000    
       841 IM1H     43       IM1H     C1       CD33F     1.70390       11.6110           0  -1.18100       1.10000    
       842 IM1H     43       IM1H     DC1      DRUD     -1.88590      0.400000           0   0.00000       0.00000    
       843 IM1H     43       IM1H     H1       HDA3A    0.135000       1.00800           0   0.00000       0.00000    
       844 IM1H     43       IM1H     H2       HDA3A    0.135000       1.00800           0   0.00000       0.00000    
       845 IM1H     43       IM1H     H3       HDA3A    0.135000       1.00800           0   0.00000       0.00000    
       846 IM1H     43       IM1H     N1       ND2R5C    1.71300       13.6070           0 -0.803000       1.00000    
       847 IM1H     43       IM1H     DN1      DRUD     -1.55500      0.400000           0   0.00000       0.00000    
       848 IM1H     43       IM1H     C2       CD2R5D    1.69890       11.6110           0  -1.08300       1.10000    
       849 IM1H     43       IM1H     DC2      DRUD     -1.80590      0.400000           0   0.00000       0.00000    
       850 IM1H     43       IM1H     H4       HDR5D    0.195000       1.00800           0   0.00000       0.00000    
       851 IM1H     43       IM1H     C3       CD2R5D    1.75890       11.6110           0  -1.08300       1.10000    
       852 IM1H     43       IM1H     DC3      DRUD     -1.80590      0.400000           0   0.00000       0.00000    
       853 IM1H     43       IM1H     H5       HDR5D    0.192000       1.00800           0   0.00000       0.00000    
       854 IM1H     43       IM1H     C4       CD2R5E    1.91950       11.6110           0  -1.25300       1.20000    
       855 IM1H     43       IM1H     DC4      DRUD     -1.94250      0.400000           0   0.00000       0.00000    
       856 IM1H     43       IM1H     H6       HDR5E    0.203000       1.00800           0   0.00000       0.00000    
       857 IM1H     43       IM1H     N2       ND2R5C    1.39800       13.6070           0 -0.803000       1.00000    
       858 IM1H     43       IM1H     DN2      DRUD     -1.55500      0.400000           0   0.00000       0.00000    
       859 IM1H     43       IM1H     H7       HDP1A    0.363000       1.00800           0   0.00000       0.00000    
       860 IM1H     43       IM1H     LPN21    LPD       0.00000       0.00000          -1   0.00000       0.00000    
       861 IM1H     44       IM1H     C1       CD33F     1.70390       11.6110           0  -1.18100       1.10000    
       862 IM1H     44       IM1H     DC1      DRUD     -1.88590      0.400000           0   0.00000       0.00000    
       863 IM1H     44       IM1H     H1       HDA3A    0.135000       1.00800           0   0.00000       0.00000    
       864 IM1H     44       IM1H     H2       HDA3A    0.135000       1.00800           0   0.00000       0.00000    
       865 IM1H     44       IM1H     H3       HDA3A    0.135000       1.00800           0   0.00000       0.00000    
       866 IM1H     44       IM1H     N1       ND2R5C    1.71300       13.6070           0 -0.803000       1.00000    
       867 IM1H     44       IM1H     DN1      DRUD     -1.55500      0.400000           0   0.00000       0.00000    
       868 IM1H     44       IM1H     C2       CD2R5D    1.69890       11.6110           0  -1.08300       1.10000    
       869 IM1H     44       IM1H     DC2      DRUD     -1.80590      0.400000           0   0.00000       0.00000    
       870 IM1H     44       IM1H     H4       HDR5D    0.195000       1.00800           0   0.00000       0.00000    
       871 IM1H     44       IM1H     C3       CD2R5D    1.75890       11.6110           0  -1.08300       1.10000    
       872 IM1H     44       IM1H     DC3      DRUD     -1.80590      0.400000           0   0.00000       0.00000    
       873 IM1H     44       IM1H     H5       HDR5D    0.192000       1.00800           0   0.00000       0.00000    
       874 IM1H     44       IM1H     C4       CD2R5E    1.91950       11.6110           0  -1.25300       1.20000    
       875 IM1H     44       IM1H     DC4      DRUD     -1.94250      0.400000           0   0.00000       0.00000    
       876 IM1H     44       IM1H     H6       HDR5E    0.203000       1.00800           0   0.00000       0.00000    
       877 IM1H     44       IM1H     N2       ND2R5C    1.39800       13.6070           0 -0.803000       1.00000    
       878 IM1H     44       IM1H     DN2      DRUD     -1.55500      0.400000           0   0.00000       0.00000    
       879 IM1H     44       IM1H     H7       HDP1A    0.363000       1.00800           0   0.00000       0.00000    
       880 IM1H     44       IM1H     LPN21    LPD       0.00000       0.00000          -1   0.00000       0.00000    
       881 IM1H     45       IM1H     C1       CD33F     1.70390       11.6110           0  -1.18100       1.10000    
       882 IM1H     45       IM1H     DC1      DRUD     -1.88590      0.400000           0   0.00000       0.00000    
       883 IM1H     45       IM1H     H1       HDA3A    0.135000       1.00800           0   0.00000       0.00000    
       884 IM1H     45       IM1H     H2       HDA3A    0.135000       1.00800           0   0.00000       0.00000    
       885 IM1H     45       IM1H     H3       HDA3A    0.135000       1.00800           0   0.00000       0.00000    
       886 IM1H     45       IM1H     N1       ND2R5C    1.71300       13.6070           0 -0.803000       1.00000    
       887 IM1H     45       IM1H     DN1      DRUD     -1.55500      0.400000           0   0.00000       0.00000    
       888 IM1H     45       IM1H     C2       CD2R5D    1.69890       11.6110           0  -1.08300       1.10000    
       889 IM1H     45       IM1H     DC2      DRUD     -1.80590      0.400000           0   0.00000       0.00000    
       890 IM1H     45       IM1H     H4       HDR5D    0.195000       1.00800           0   0.00000       0.00000    
       891 IM1H     45       IM1H     C3       CD2R5D    1.75890       11.6110           0  -1.08300       1.10000    
       892 IM1H     45       IM1H     DC3      DRUD     -1.80590      0.400000           0   0.00000       0.00000    
       893 IM1H     45       IM1H     H5       HDR5D    0.192000       1.00800           0   0.00000       0.00000    
       894 IM1H     45       IM1H     C4       CD2R5E    1.91950       11.6110           0  -1.25300       1.20000    
       895 IM1H     45       IM1H     DC4      DRUD     -1.94250      0.400000           0   0.00000       0.00000    
       896 IM1H     45       IM1H     H6       HDR5E    0.203000       1.00800           0   0.00000       0.00000    
       897 IM1H     45       IM1H     N2       ND2R5C    1.39800       13.6070           0 -0.803000       1.00000    
       898 IM1H     45       IM1H     DN2      DRUD     -1.55500      0.400000           0   0.00000       0.00000    
       899 IM1H     45       IM1H     H7       HDP1A    0.363000       1.00800           0   0.00000       0.00000    
       900 IM1H     45       IM1H     LPN21    LPD       0.00000       0.00000          -1   0.00000       0.00000    
       901 IM1H     46       IM1H     C1       CD33F     1.70390       11.6110           0  -1.18100       1.10000    
       902 IM1H     46       IM1H     DC1      DRUD     -1.88590      0.400000           0   0.00000       0.00000    
       903 IM1H     46       IM1H     H1       HDA3A    0.135000       1.00800           0   0.00000       0.00000    
       904 IM1H     46       IM1H     H2       HDA3A    0.135000       1.00800           0   0.00000       0.00000    
       905 IM1H     46       IM1H     H3       HDA3A    0.135000       1.00800           0   0.00000       0.00000    
       906 IM1H     46       IM1H     N1       ND2R5C    1.71300       13.6070           0 -0.803000       1.00000    
       907 IM1H     46       IM1H     DN1      DRUD     -1.55500      0.400000           0   0.00000       0.00000    
       908 IM1H     46       IM1H     C2       CD2R5D    1.69890       11.6110           0  -1.08300       1.10000    
       909 IM1H     46       IM1H     DC2      DRUD     -1.80590      0.400000           0   0.00000       0.00000    
       910 IM1H     46       IM1H     H4       HDR5D    0.195000       1.00800           0   0.00000       0.00000    
       911 IM1H     46       IM1H     C3       CD2R5D    1.75890       11.6110           0  -1.08300       1.10000    
       912 IM1H     46       IM1H     DC3      DRUD     -1.80590      0.400000           0   0.00000       0.00000    
       913 IM1H     46       IM1H     H5       HDR5D    0.192000       1.00800           0   0.00000       0.00000    
       914 IM1H     46       IM1H     C4       CD2R5E    1.91950       11.6110           0  -1.25300       1.20000    
       915 IM1H     46       IM1H     DC4      DRUD     -1.94250      0.400000           0   0.00000       0.00000    
       916 IM1H     46       IM1H     H6       HDR5E    0.203000       1.00800           0   0.00000       0.00000    
       917 IM1H     46       IM1H     N2       ND2R5C    1.39800       13.6070           0 -0.803000       1.00000    
       918 IM1H     46       IM1H     DN2      DRUD     -1.55500      0.400000           0   0.00000       0.00000    
       919 IM1H     46       IM1H     H7       HDP1A    0.363000       1.00800           0   0.00000       0.00000    
       920 IM1H     46       IM1H     LPN21    LPD       0.00000       0.00000          -1   0.00000       0.00000    
       921 IM1H     47       IM1H     C1       CD33F     1.70390       11.6110           0  -1.18100       1.10000    
       922 IM1H     47       IM1H     DC1      DRUD     -1.88590      0.400000           0   0.00000       0.00000    
       923 IM1H     47       IM1H     H1       HDA3A    0.135000       1.00800           0   0.00000       0.00000    
       924 IM1H     47       IM1H     H2       HDA3A    0.135000       1.00800           0   0.00000       0.00000    
       925 IM1H     47       IM1H     H3       HDA3A    0.135000       1.00800           0   0.00000       0.00000    
       926 IM1H     47       IM1H     N1       ND2R5C    1.71300       13.6070           0 -0.803000       1.00000    
       927 IM1H     47       IM1H     DN1      DRUD     -1.55500      0.400000           0   0.00000       0.00000    
       928 IM1H     47       IM1H     C2       CD2R5D    1.69890       11.6110           0  -1.08300       1.10000    
       929 IM1H     47       IM1H     DC2      DRUD     -1.80590      0.400000           0   0.00000       0.00000    
       930 IM1H     47       IM1H     H4       HDR5D    0.195000       1.00800           0   0.00000       0.00000    
       931 IM1H     47       IM1H     C3       CD2R5D    1.75890       11.6110           0  -1.08300       1.10000    
       932 IM1H     47       IM1H     DC3      DRUD     -1.80590      0.400000           0   0.00000       0.00000    
       933 IM1H     47       IM1H     H5       HDR5D    0.192000       1.00800           0   0.00000       0.00000    
       934 IM1H     47       IM1H     C4       CD2R5E    1.91950       11.6110           0  -1.25300       1.20000    
       935 IM1H     47       IM1H     DC4      DRUD     -1.94250      0.400000           0   0.00000       0.00000    
       936 IM1H     47       IM1H     H6       HDR5E    0.203000       1.00800           0   0.00000       0.00000    
       937 IM1H     47       IM1H     N2       ND2R5C    1.39800       13.6070           0 -0.803000       1.00000    
       938 IM1H     47       IM1H     DN2      DRUD     -1.55500      0.400000           0   0.00000       0.00000    
       939 IM1H     47       IM1H     H7       HDP1A    0.363000       1.00800           0   0.00000       0.00000    
       940 IM1H     47       IM1H     LPN21    LPD       0.00000       0.00000          -1   0.00000       0.00000    
       941 IM1H     48       IM1H     C1       CD33F     1.70390       11.6110           0  -1.18100       1.10000    
       942 IM1H     48       IM1H     DC1      DRUD     -1.88590      0.400000           0   0.00000       0.00000    
       943 IM1H     48       IM1H     H1       HDA3A    0.135000       1.00800           0   0.00000       0.00000    
       944 IM1H     48       IM1H     H2       HDA3A    0.135000       1.00800           0   0.00000       0.00000    
       945 IM1H     48       IM1H     H3       HDA3A    0.135000       1.00800           0   0.00000       0.00000    
       946 IM1H     48       IM1H     N1       ND2R5C    1.71300       13.6070           0 -0.803000       1.00000    
       947 IM1H     48       IM1H     DN1      DRUD     -1.55500      0.400000           0   0.00000       0.00000    
       948 IM1H     48       IM1H     C2       CD2R5D    1.69890       11.6110           0  -1.08300       1.10000    
       949 IM1H     48       IM1H     DC2      DRUD     -1.80590      0.400000           0   0.00000       0.00000    
       950 IM1H     48       IM1H     H4       HDR5D    0.195000       1.00800           0   0.00000       0.00000    
       951 IM1H     48       IM1H     C3       CD2R5D    1.75890       11.6110           0  -1.08300       1.10000    
       952 IM1H     48       IM1H     DC3      DRUD     -1.80590      0.400000           0   0.00000       0.00000    
       953 IM1H     48       IM1H     H5       HDR5D    0.192000       1.00800           0   0.00000       0.00000    
       954 IM1H     48       IM1H     C4       CD2R5E    1.91950       11.6110           0  -1.25300       1.20000    
       955 IM1H     48       IM1H     DC4      DRUD     -1.94250      0.400000           0   0.00000       0.00000    
       956 IM1H     48       IM1H     H6       HDR5E    0.203000       1.00800           0   0.00000       0.00000    
       957 IM1H     48       IM1H     N2       ND2R5C    1.39800       13.6070           0 -0.803000       1.00000    
       958 IM1H     48       IM1H     DN2      DRUD     -1.55500      0.400000           0   0.00000       0.00000    
       959 IM1H     48       IM1H     H7       HDP1A    0.363000       1.00800           0   0.00000       0.00000    
       960 IM1H     48       IM1H     LPN21    LPD       0.00000       0.00000          -1   0.00000       0.00000    
       961 IM1H     49       IM1H     C1       CD33F     1.70390       11.6110           0  -1.18100       1.10000    
       962 IM1H     49       IM1H     DC1      DRUD     -1.88590      0.400000           0   0.00000       0.00000    
       963 IM1H     49       IM1H     H1       HDA3A    0.135000       1.00800           0   0.00000       0.00000    
       964 IM1H     49       IM1H     H2       HDA3A    0.135000       1.00800           0   0.00000       0.00000    
       965 IM1H     49       IM1H     H3       HDA3A    0.135000       1.00800           0   0.00000       0.00000    
       966 IM1H     49       IM1H     N1       ND2R5C    1.71300       13.6070           0 -0.803000       1.00000    
       967 IM1H     49       IM1H     DN1      DRUD     -1.55500      0.400000           0   0.00000       0.00000    
       968 IM1H     49       IM1H     C2       CD2R5D    1.69890       11.6110           0  -1.08300       1.10000    
       969 IM1H     49       IM1H     DC2      DRUD     -1.80590      0.400000           0   0.00000       0.00000    
       970 IM1H     49       IM1H     H4       HDR5D    0.195000       1.00800           0   0.00000       0.00000    
       971 IM1H     49       IM1H     C3       CD2R5D    1.75890       11.6110           0  -1.08300       1.10000    
       972 IM1H     49       IM1H     DC3      DRUD     -1.80590      0.400000           0   0.00000       0.00000    
       973 IM1H     49       IM1H     H5       HDR5D    0.192000       1.00800           0   0.00000       0.00000    
       974 IM1H     49       IM1H     C4       CD2R5E    1.91950       11.6110           0  -1.25300       1.20000    
       975 IM1H     49       IM1H     DC4      DRUD     -1.94250      0.400000           0   0.00000       0.00000    
       976 IM1H     49       IM1H     H6       HDR5E    0.203000       1.00800           0   0.00000       0.00000    
       977 IM1H     49       IM1H     N2       ND2R5C    1.39800       13.6070           0 -0.803000       1.00000    
       978 IM1H     49       IM1H     DN2      DRUD     -1.55500      0.400000           0   0.00000       0.00000    
       979 IM1H     49       IM1H     H7       HDP1A    0.363000       1.00800           0   0.00000       0.00000    
       980 IM1H     49       IM1H     LPN21    LPD       0.00000       0.00000          -1   0.00000       0.00000    
       981 IM1H     50       IM1H     C1       CD33F     1.70390       11.6110           0  -1.18100       1.10000    
       982 IM1H     50       IM1H     DC1      DRUD     -1.88590      0.400000           0   0.00000       0.00000    
       983 IM1H     50       IM1H     H1       HDA3A    0.135000       1.00800           0   0.00000       0.00000    
       984 IM1H     50       IM1H     H2       HDA3A    0.135000       1.00800           0   0.00000       0.00000    
       985 IM1H     50       IM1H     H3       HDA3A    0.135000       1.00800           0   0.00000       0.00000    
       986 IM1H     50       IM1H     N1       ND2R5C    1.71300       13.6070           0 -0.803000       1.00000    
       987 IM1H     50       IM1H     DN1      DRUD     -1.55500      0.400000           0   0.00000       0.00000    
       988 IM1H     50       IM1H     C2       CD2R5D    1.69890       11.6110           0  -1.08300       1.10000    
       989 IM1H     50       IM1H     DC2      DRUD     -1.80590      0.400000           0   0.00000       0.00000    
       990 IM1H     50       IM1H     H4       HDR5D    0.195000       1.00800           0   0.00000       0.00000    
       991 IM1H     50       IM1H     C3       CD2R5D    1.75890       11.6110           0  -1.08300       1.10000    
       992 IM1H     50       IM1H     DC3      DRUD     -1.80590      0.400000           0   0.00000       0.00000    
       993 IM1H     50       IM1H     H5       HDR5D    0.192000       1.00800           0   0.00000       0.00000    
       994 IM1H     50       IM1H     C4       CD2R5E    1.91950       11.6110           0  -1.25300       1.20000    
       995 IM1H     50       IM1H     DC4      DRUD     -1.94250      0.400000           0   0.00000       0.00000    
       996 IM1H     50       IM1H     H6       HDR5E    0.203000       1.00800           0   0.00000       0.00000    
       997 IM1H     50       IM1H     N2       ND2R5C    1.39800       13.6070           0 -0.803000       1.00000    
       998 IM1H     50       IM1H     DN2      DRUD     -1.55500      0.400000           0   0.00000       0.00000    
       999 IM1H     50       IM1H     H7       HDP1A    0.363000       1.00800           0   0.00000       0.00000    
      1000 IM1H     50       IM1H     LPN21    LPD       0.00000       0.00000          -1   0.00000       0.00000    
      1001 IM1H     51       IM1H     C1       CD33F     1.70390       11.6110           0  -1.18100       1.10000    
      1002 IM1H     51       IM1H     DC1      DRUD     -1.88590      0.400000           0   0.00000       0.00000    
      1003 IM1H     51       IM1H     H1       HDA3A    0.135000       1.00800           0   0.00000       0.00000    
      1004 IM1H     51       IM1H     H2       HDA3A    0.135000       1.00800           0   0.00000       0.00000    
      1005 IM1H     51       IM1H     H3       HDA3A    0.135000       1.00800           0   0.00000       0.00000    
      1006 IM1H     51       IM1H     N1       ND2R5C    1.71300       13.6070           0 -0.803000       1.00000    
      1007 IM1H     51       IM1H     DN1      DRUD     -1.55500      0.400000           0   0.00000       0.00000    
      1008 IM1H     51       IM1H     C2       CD2R5D    1.69890       11.6110           0  -1.08300       1.10000    
      1009 IM1H     51       IM1H     DC2      DRUD     -1.80590      0.400000           0   0.00000       0.00000    
      1010 IM1H     51       IM1H     H4       HDR5D    0.195000       1.00800           0   0.00000       0.00000    
      1011 IM1H     51       IM1H     C3       CD2R5D    1.75890       11.6110           0  -1.08300       1.10000    
      1012 IM1H     51       IM1H     DC3      DRUD     -1.80590      0.400000           0   0.00000       0.00000    
      1013 IM1H     51       IM1H     H5       HDR5D    0.192000       1.00800           0   0.00000       0.00000    
      1014 IM1H     51       IM1H     C4       CD2R5E    1.91950       11.6110           0  -1.25300       1.20000    
      1015 IM1H     51       IM1H     DC4      DRUD     -1.94250      0.400000           0   0.00000       0.00000    
      1016 IM1H     51       IM1H     H6       HDR5E    0.203000       1.00800           0   0.00000       0.00000    
      1017 IM1H     51       IM1H     N2       ND2R5C    1.39800       13.6070           0 -0.803000       1.00000    
      1018 IM1H     51       IM1H     DN2      DRUD     -1.55500      0.400000           0   0.00000       0.00000    
      1019 IM1H     51       IM1H     H7       HDP1A    0.363000       1.00800           0   0.00000       0.00000    
      1020 IM1H     51       IM1H     LPN21    LPD       0.00000       0.00000          -1   0.00000       0.00000    
      1021 IM1H     52       IM1H     C1       CD33F     1.70390       11.6110           0  -1.18100       1.10000    
      1022 IM1H     52       IM1H     DC1      DRUD     -1.88590      0.400000           0   0.00000       0.00000    
      1023 IM1H     52       IM1H     H1       HDA3A    0.135000       1.00800           0   0.00000       0.00000    
      1024 IM1H     52       IM1H     H2       HDA3A    0.135000       1.00800           0   0.00000       0.00000    
      1025 IM1H     52       IM1H     H3       HDA3A    0.135000       1.00800           0   0.00000       0.00000    
      1026 IM1H     52       IM1H     N1       ND2R5C    1.71300       13.6070           0 -0.803000       1.00000    
      1027 IM1H     52       IM1H     DN1      DRUD     -1.55500      0.400000           0   0.00000       0.00000    
      1028 IM1H     52       IM1H     C2       CD2R5D    1.69890       11.6110           0  -1.08300       1.10000    
      1029 IM1H     52       IM1H     DC2      DRUD     -1.80590      0.400000           0   0.00000       0.00000    
      1030 IM1H     52       IM1H     H4       HDR5D    0.195000       1.00800           0   0.00000       0.00000    
      1031 IM1H     52       IM1H     C3       CD2R5D    1.75890       11.6110           0  -1.08300       1.10000    
      1032 IM1H     52       IM1H     DC3      DRUD     -1.80590      0.400000           0   0.00000       0.00000    
      1033 IM1H     52       IM1H     H5       HDR5D    0.192000       1.00800           0   0.00000       0.00000    
      1034 IM1H     52       IM1H     C4       CD2R5E    1.91950       11.6110           0  -1.25300       1.20000    
      1035 IM1H     52       IM1H     DC4      DRUD     -1.94250      0.400000           0   0.00000       0.00000    
      1036 IM1H     52       IM1H     H6       HDR5E    0.203000       1.00800           0   0.00000       0.00000    
      1037 IM1H     52       IM1H     N2       ND2R5C    1.39800       13.6070           0 -0.803000       1.00000    
      1038 IM1H     52       IM1H     DN2      DRUD     -1.55500      0.400000           0   0.00000       0.00000    
      1039 IM1H     52       IM1H     H7       HDP1A    0.363000       1.00800           0   0.00000       0.00000    
      1040 IM1H     52       IM1H     LPN21    LPD       0.00000       0.00000          -1   0.00000       0.00000    
      1041 IM1H     53       IM1H     C1       CD33F     1.70390       11.6110           0  -1.18100       1.10000    
      1042 IM1H     53       IM1H     DC1      DRUD     -1.88590      0.400000           0   0.00000       0.00000    
      1043 IM1H     53       IM1H     H1       HDA3A    0.135000       1.00800           0   0.00000       0.00000    
      1044 IM1H     53       IM1H     H2       HDA3A    0.135000       1.00800           0   0.00000       0.00000    
      1045 IM1H     53       IM1H     H3       HDA3A    0.135000       1.00800           0   0.00000       0.00000    
      1046 IM1H     53       IM1H     N1       ND2R5C    1.71300       13.6070           0 -0.803000       1.00000    
      1047 IM1H     53       IM1H     DN1      DRUD     -1.55500      0.400000           0   0.00000       0.00000    
      1048 IM1H     53       IM1H     C2       CD2R5D    1.69890       11.6110           0  -1.08300       1.10000    
      1049 IM1H     53       IM1H     DC2      DRUD     -1.80590      0.400000           0   0.00000       0.00000    
      1050 IM1H     53       IM1H     H4       HDR5D    0.195000       1.00800           0   0.00000       0.00000    
      1051 IM1H     53       IM1H     C3       CD2R5D    1.75890       11.6110           0  -1.08300       1.10000    
      1052 IM1H     53       IM1H     DC3      DRUD     -1.80590      0.400000           0   0.00000       0.00000    
      1053 IM1H     53       IM1H     H5       HDR5D    0.192000       1.00800           0   0.00000       0.00000    
      1054 IM1H     53       IM1H     C4       CD2R5E    1.91950       11.6110           0  -1.25300       1.20000    
      1055 IM1H     53       IM1H     DC4      DRUD     -1.94250      0.400000           0   0.00000       0.00000    
      1056 IM1H     53       IM1H     H6       HDR5E    0.203000       1.00800           0   0.00000       0.00000    
      1057 IM1H     53       IM1H     N2       ND2R5C    1.39800       13.6070           0 -0.803000       1.00000    
      1058 IM1H     53       IM1H     DN2      DRUD     -1.55500      0.400000           0   0.00000       0.00000    
      1059 IM1H     53       IM1H     H7       HDP1A    0.363000       1.00800           0   0.00000       0.00000    
      1060 IM1H     53       IM1H     LPN21    LPD       0.00000       0.00000          -1   0.00000       0.00000    
      1061 IM1H     54       IM1H     C1       CD33F     1.70390       11.6110           0  -1.18100       1.10000    
      1062 IM1H     54       IM1H     DC1      DRUD     -1.88590      0.400000           0   0.00000       0.00000    
      1063 IM1H     54       IM1H     H1       HDA3A    0.135000       1.00800           0   0.00000       0.00000    
      1064 IM1H     54       IM1H     H2       HDA3A    0.135000       1.00800           0   0.00000       0.00000    
      1065 IM1H     54       IM1H     H3       HDA3A    0.135000       1.00800           0   0.00000       0.00000    
      1066 IM1H     54       IM1H     N1       ND2R5C    1.71300       13.6070           0 -0.803000       1.00000    
      1067 IM1H     54       IM1H     DN1      DRUD     -1.55500      0.400000           0   0.00000       0.00000    
      1068 IM1H     54       IM1H     C2       CD2R5D    1.69890       11.6110           0  -1.08300       1.10000    
      1069 IM1H     54       IM1H     DC2      DRUD     -1.80590      0.400000           0   0.00000       0.00000    
      1070 IM1H     54       IM1H     H4       HDR5D    0.195000       1.00800           0   0.00000       0.00000    
      1071 IM1H     54       IM1H     C3       CD2R5D    1.75890       11.6110           0  -1.08300       1.10000    
      1072 IM1H     54       IM1H     DC3      DRUD     -1.80590      0.400000           0   0.00000       0.00000    
      1073 IM1H     54       IM1H     H5       HDR5D    0.192000       1.00800           0   0.00000       0.00000    
      1074 IM1H     54       IM1H     C4       CD2R5E    1.91950       11.6110           0  -1.25300       1.20000    
      1075 IM1H     54       IM1H     DC4      DRUD     -1.94250      0.400000           0   0.00000       0.00000    
      1076 IM1H     54       IM1H     H6       HDR5E    0.203000       1.00800           0   0.00000       0.00000    
      1077 IM1H     54       IM1H     N2       ND2R5C    1.39800       13.6070           0 -0.803000       1.00000    
      1078 IM1H     54       IM1H     DN2      DRUD     -1.55500      0.400000           0   0.00000       0.00000    
      1079 IM1H     54       IM1H     H7       HDP1A    0.363000       1.00800           0   0.00000       0.00000    
      1080 IM1H     54       IM1H     LPN21    LPD       0.00000       0.00000          -1   0.00000       0.00000    
      1081 IM1H     55       IM1H     C1       CD33F     1.70390       11.6110           0  -1.18100       1.10000    
      1082 IM1H     55       IM1H     DC1      DRUD     -1.88590      0.400000           0   0.00000       0.00000    
      1083 IM1H     55       IM1H     H1       HDA3A    0.135000       1.00800           0   0.00000       0.00000    
      1084 IM1H     55       IM1H     H2       HDA3A    0.135000       1.00800           0   0.00000       0.00000    
      1085 IM1H     55       IM1H     H3       HDA3A    0.135000       1.00800           0   0.00000       0.00000    
      1086 IM1H     55       IM1H     N1       ND2R5C    1.71300       13.6070           0 -0.803000       1.00000    
      1087 IM1H     55       IM1H     DN1      DRUD     -1.55500      0.400000           0   0.00000       0.00000    
      1088 IM1H     55       IM1H     C2       CD2R5D    1.69890       11.6110           0  -1.08300       1.10000    
      1089 IM1H     55       IM1H     DC2      DRUD     -1.80590      0.400000           0   0.00000       0.00000    
      1090 IM1H     55       IM1H     H4       HDR5D    0.195000       1.00800           0   0.00000       0.00000    
      1091 IM1H     55       IM1H     C3       CD2R5D    1.75890       11.6110           0  -1.08300       1.10000    
      1092 IM1H     55       IM1H     DC3      DRUD     -1.80590      0.400000           0   0.00000       0.00000    
      1093 IM1H     55       IM1H     H5       HDR5D    0.192000       1.00800           0   0.00000       0.00000    
      1094 IM1H     55       IM1H     C4       CD2R5E    1.91950       11.6110           0  -1.25300       1.20000    
      1095 IM1H     55       IM1H     DC4      DRUD     -1.94250      0.400000           0   0.00000       0.00000    
      1096 IM1H     55       IM1H     H6       HDR5E    0.203000       1.00800           0   0.00000       0.00000    
      1097 IM1H     55       IM1H     N2       ND2R5C    1.39800       13.6070           0 -0.803000       1.00000    
      1098 IM1H     55       IM1H     DN2      DRUD     -1.55500      0.400000           0   0.00000       0.00000    
      1099 IM1H     55       IM1H     H7       HDP1A    0.363000       1.00800           0   0.00000       0.00000    
      1100 IM1H     55       IM1H     LPN21    LPD       0.00000       0.00000          -1   0.00000       0.00000    
      1101 IM1H     56       IM1H     C1       CD33F     1.70390       11.6110           0  -1.18100       1.10000    
      1102 IM1H     56       IM1H     DC1      DRUD     -1.88590      0.400000           0   0.00000       0.00000    
      1103 IM1H     56       IM1H     H1       HDA3A    0.135000       1.00800           0   0.00000       0.00000    
      1104 IM1H     56       IM1H     H2       HDA3A    0.135000       1.00800           0   0.00000       0.00000    
      1105 IM1H     56       IM1H     H3       HDA3A    0.135000       1.00800           0   0.00000       0.00000    
      1106 IM1H     56       IM1H     N1       ND2R5C    1.71300       13.6070           0 -0.803000       1.00000    
      1107 IM1H     56       IM1H     DN1      DRUD     -1.55500      0.400000           0   0.00000       0.00000    
      1108 IM1H     56       IM1H     C2       CD2R5D    1.69890       11.6110           0  -1.08300       1.10000    
      1109 IM1H     56       IM1H     DC2      DRUD     -1.80590      0.400000           0   0.00000       0.00000    
      1110 IM1H     56       IM1H     H4       HDR5D    0.195000       1.00800           0   0.00000       0.00000    
      1111 IM1H     56       IM1H     C3       CD2R5D    1.75890       11.6110           0  -1.08300       1.10000    
      1112 IM1H     56       IM1H     DC3      DRUD     -1.80590      0.400000           0   0.00000       0.00000    
      1113 IM1H     56       IM1H     H5       HDR5D    0.192000       1.00800           0   0.00000       0.00000    
      1114 IM1H     56       IM1H     C4       CD2R5E    1.91950       11.6110           0  -1.25300       1.20000    
      1115 IM1H     56       IM1H     DC4      DRUD     -1.94250      0.400000           0   0.00000       0.00000    
      1116 IM1H     56       IM1H     H6       HDR5E    0.203000       1.00800           0   0.00000       0.00000    
      1117 IM1H     56       IM1H     N2       ND2R5C    1.39800       13.6070           0 -0.803000       1.00000    
      1118 IM1H     56       IM1H     DN2      DRUD     -1.55500      0.400000           0   0.00000       0.00000    
      1119 IM1H     56       IM1H     H7       HDP1A    0.363000       1.00800           0   0.00000       0.00000    
      1120 IM1H     56       IM1H     LPN21    LPD       0.00000       0.00000          -1   0.00000       0.00000    
      1121 IM1H     57       IM1H     C1       CD33F     1.70390       11.6110           0  -1.18100       1.10000    
      1122 IM1H     57       IM1H     DC1      DRUD     -1.88590      0.400000           0   0.00000       0.00000    
      1123 IM1H     57       IM1H     H1       HDA3A    0.135000       1.00800           0   0.00000       0.00000    
      1124 IM1H     57       IM1H     H2       HDA3A    0.135000       1.00800           0   0.00000       0.00000    
      1125 IM1H     57       IM1H     H3       HDA3A    0.135000       1.00800           0   0.00000       0.00000    
      1126 IM1H     57       IM1H     N1       ND2R5C    1.71300       13.6070           0 -0.803000       1.00000    
      1127 IM1H     57       IM1H     DN1      DRUD     -1.55500      0.400000           0   0.00000       0.00000    
      1128 IM1H     57       IM1H     C2       CD2R5D    1.69890       11.6110           0  -1.08300       1.10000    
      1129 IM1H     57       IM1H     DC2      DRUD     -1.80590      0.400000           0   0.00000       0.00000    
      1130 IM1H     57       IM1H     H4       HDR5D    0.195000       1.00800           0   0.00000       0.00000    
      1131 IM1H     57       IM1H     C3       CD2R5D    1.75890       11.6110           0  -1.08300       1.10000    
      1132 IM1H     57       IM1H     DC3      DRUD     -1.80590      0.400000           0   0.00000       0.00000    
      1133 IM1H     57       IM1H     H5       HDR5D    0.192000       1.00800           0   0.00000       0.00000    
      1134 IM1H     57       IM1H     C4       CD2R5E    1.91950       11.6110           0  -1.25300       1.20000    
      1135 IM1H     57       IM1H     DC4      DRUD     -1.94250      0.400000           0   0.00000       0.00000    
      1136 IM1H     57       IM1H     H6       HDR5E    0.203000       1.00800           0   0.00000       0.00000    
      1137 IM1H     57       IM1H     N2       ND2R5C    1.39800       13.6070           0 -0.803000       1.00000    
      1138 IM1H     57       IM1H     DN2      DRUD     -1.55500      0.400000           0   0.00000       0.00000    
      1139 IM1H     57       IM1H     H7       HDP1A    0.363000       1.00800           0   0.00000       0.00000    
      1140 IM1H     57       IM1H     LPN21    LPD       0.00000       0.00000          -1   0.00000       0.00000    
      1141 IM1H     58       IM1H     C1       CD33F     1.70390       11.6110           0  -1.18100       1.10000    
      1142 IM1H     58       IM1H     DC1      DRUD     -1.88590      0.400000           0   0.00000       0.00000    
      1143 IM1H     58       IM1H     H1       HDA3A    0.135000       1.00800           0   0.00000       0.00000    
      1144 IM1H     58       IM1H     H2       HDA3A    0.135000       1.00800           0   0.00000       0.00000    
      1145 IM1H     58       IM1H     H3       HDA3A    0.135000       1.00800           0   0.00000       0.00000    
      1146 IM1H     58       IM1H     N1       ND2R5C    1.71300       13.6070           0 -0.803000       1.00000    
      1147 IM1H     58       IM1H     DN1      DRUD     -1.55500      0.400000           0   0.00000       0.00000    
      1148 IM1H     58       IM1H     C2       CD2R5D    1.69890       11.6110           0  -1.08300       1.10000    
      1149 IM1H     58       IM1H     DC2      DRUD     -1.80590      0.400000           0   0.00000       0.00000    
      1150 IM1H     58       IM1H     H4       HDR5D    0.195000       1.00800           0   0.00000       0.00000    
      1151 IM1H     58       IM1H     C3       CD2R5D    1.75890       11.6110           0  -1.08300       1.10000    
      1152 IM1H     58       IM1H     DC3      DRUD     -1.80590      0.400000           0   0.00000       0.00000    
      1153 IM1H     58       IM1H     H5       HDR5D    0.192000       1.00800           0   0.00000       0.00000    
      1154 IM1H     58       IM1H     C4       CD2R5E    1.91950       11.6110           0  -1.25300       1.20000    
      1155 IM1H     58       IM1H     DC4      DRUD     -1.94250      0.400000           0   0.00000       0.00000    
      1156 IM1H     58       IM1H     H6       HDR5E    0.203000       1.00800           0   0.00000       0.00000    
      1157 IM1H     58       IM1H     N2       ND2R5C    1.39800       13.6070           0 -0.803000       1.00000    
      1158 IM1H     58       IM1H     DN2      DRUD     -1.55500      0.400000           0   0.00000       0.00000    
      1159 IM1H     58       IM1H     H7       HDP1A    0.363000       1.00800           0   0.00000       0.00000    
      1160 IM1H     58       IM1H     LPN21    LPD       0.00000       0.00000          -1   0.00000       0.00000    
      1161 IM1H     59       IM1H     C1       CD33F     1.70390       11.6110           0  -1.18100       1.10000    
      1162 IM1H     59       IM1H     DC1      DRUD     -1.88590      0.400000           0   0.00000       0.00000    
      1163 IM1H     59       IM1H     H1       HDA3A    0.135000       1.00800           0   0.00000       0.00000    
      1164 IM1H     59       IM1H     H2       HDA3A    0.135000       1.00800           0   0.00000       0.00000    
      1165 IM1H     59       IM1H     H3       HDA3A    0.135000       1.00800           0   0.00000       0.00000    
      1166 IM1H     59       IM1H     N1       ND2R5C    1.71300       13.6070           0 -0.803000       1.00000    
      1167 IM1H     59       IM1H     DN1      DRUD     -1.55500      0.400000           0   0.00000       0.00000    
      1168 IM1H     59       IM1H     C2       CD2R5D    1.69890       11.6110           0  -1.08300       1.10000    
      1169 IM1H     59       IM1H     DC2      DRUD     -1.80590      0.400000           0   0.00000       0.00000    
      1170 IM1H     59       IM1H     H4       HDR5D    0.195000       1.00800           0   0.00000       0.00000    
      1171 IM1H     59       IM1H     C3       CD2R5D    1.75890       11.6110           0  -1.08300       1.10000    
      1172 IM1H     59       IM1H     DC3      DRUD     -1.80590      0.400000           0   0.00000       0.00000    
      1173 IM1H     59       IM1H     H5       HDR5D    0.192000       1.00800           0   0.00000       0.00000    
      1174 IM1H     59       IM1H     C4       CD2R5E    1.91950       11.6110           0  -1.25300       1.20000    
      1175 IM1H     59       IM1H     DC4      DRUD     -1.94250      0.400000           0   0.00000       0.00000    
      1176 IM1H     59       IM1H     H6       HDR5E    0.203000       1.00800           0   0.00000       0.00000    
      1177 IM1H     59       IM1H     N2       ND2R5C    1.39800       13.6070           0 -0.803000       1.00000    
      1178 IM1H     59       IM1H     DN2      DRUD     -1.55500      0.400000           0   0.00000       0.00000    
      1179 IM1H     59       IM1H     H7       HDP1A    0.363000       1.00800           0   0.00000       0.00000    
      1180 IM1H     59       IM1H     LPN21    LPD       0.00000       0.00000          -1   0.00000       0.00000    
      1181 IM1H     60       IM1H     C1       CD33F     1.70390       11.6110           0  -1.18100       1.10000    
      1182 IM1H     60       IM1H     DC1      DRUD     -1.88590      0.400000           0   0.00000       0.00000    
      1183 IM1H     60       IM1H     H1       HDA3A    0.135000       1.00800           0   0.00000       0.00000    
      1184 IM1H     60       IM1H     H2       HDA3A    0.135000       1.00800           0   0.00000       0.00000    
      1185 IM1H     60       IM1H     H3       HDA3A    0.135000       1.00800           0   0.00000       0.00000    
      1186 IM1H     60       IM1H     N1       ND2R5C    1.71300       13.6070           0 -0.803000       1.00000    
      1187 IM1H     60       IM1H     DN1      DRUD     -1.55500      0.400000           0   0.00000       0.00000    
      1188 IM1H     60       IM1H     C2       CD2R5D    1.69890       11.6110           0  -1.08300       1.10000    
      1189 IM1H     60       IM1H     DC2      DRUD     -1.80590      0.400000           0   0.00000       0.00000    
      1190 IM1H     60       IM1H     H4       HDR5D    0.195000       1.00800           0   0.00000       0.00000    
      1191 IM1H     60       IM1H     C3       CD2R5D    1.75890       11.6110           0  -1.08300       1.10000    
      1192 IM1H     60       IM1H     DC3      DRUD     -1.80590      0.400000           0   0.00000       0.00000    
      1193 IM1H     60       IM1H     H5       HDR5D    0.192000       1.00800           0   0.00000       0.00000    
      1194 IM1H     60       IM1H     C4       CD2R5E    1.91950       11.6110           0  -1.25300       1.20000    
      1195 IM1H     60       IM1H     DC4      DRUD     -1.94250      0.400000           0   0.00000       0.00000    
      1196 IM1H     60       IM1H     H6       HDR5E    0.203000       1.00800           0   0.00000       0.00000    
      1197 IM1H     60       IM1H     N2       ND2R5C    1.39800       13.6070           0 -0.803000       1.00000    
      1198 IM1H     60       IM1H     DN2      DRUD     -1.55500      0.400000           0   0.00000       0.00000    
      1199 IM1H     60       IM1H     H7       HDP1A    0.363000       1.00800           0   0.00000       0.00000    
      1200 IM1H     60       IM1H     LPN21    LPD       0.00000       0.00000          -1   0.00000       0.00000    
      1201 IM1H     61       IM1H     C1       CD33F     1.70390       11.6110           0  -1.18100       1.10000    
      1202 IM1H     61       IM1H     DC1      DRUD     -1.88590      0.400000           0   0.00000       0.00000    
      1203 IM1H     61       IM1H     H1       HDA3A    0.135000       1.00800           0   0.00000       0.00000    
      1204 IM1H     61       IM1H     H2       HDA3A    0.135000       1.00800           0   0.00000       0.00000    
      1205 IM1H     61       IM1H     H3       HDA3A    0.135000       1.00800           0   0.00000       0.00000    
      1206 IM1H     61       IM1H     N1       ND2R5C    1.71300       13.6070           0 -0.803000       1.00000    
      1207 IM1H     61       IM1H     DN1      DRUD     -1.55500      0.400000           0   0.00000       0.00000    
      1208 IM1H     61       IM1H     C2       CD2R5D    1.69890       11.6110           0  -1.08300       1.10000    
      1209 IM1H     61       IM1H     DC2      DRUD     -1.80590      0.400000           0   0.00000       0.00000    
      1210 IM1H     61       IM1H     H4       HDR5D    0.195000       1.00800           0   0.00000       0.00000    
      1211 IM1H     61       IM1H     C3       CD2R5D    1.75890       11.6110           0  -1.08300       1.10000    
      1212 IM1H     61       IM1H     DC3      DRUD     -1.80590      0.400000           0   0.00000       0.00000    
      1213 IM1H     61       IM1H     H5       HDR5D    0.192000       1.00800           0   0.00000       0.00000    
      1214 IM1H     61       IM1H     C4       CD2R5E    1.91950       11.6110           0  -1.25300       1.20000    
      1215 IM1H     61       IM1H     DC4      DRUD     -1.94250      0.400000           0   0.00000       0.00000    
      1216 IM1H     61       IM1H     H6       HDR5E    0.203000       1.00800           0   0.00000       0.00000    
      1217 IM1H     61       IM1H     N2       ND2R5C    1.39800       13.6070           0 -0.803000       1.00000    
      1218 IM1H     61       IM1H     DN2      DRUD     -1.55500      0.400000           0   0.00000       0.00000    
      1219 IM1H     61       IM1H     H7       HDP1A    0.363000       1.00800           0   0.00000       0.00000    
      1220 IM1H     61       IM1H     LPN21    LPD       0.00000       0.00000          -1   0.00000       0.00000    
      1221 IM1H     62       IM1H     C1       CD33F     1.70390       11.6110           0  -1.18100       1.10000    
      1222 IM1H     62       IM1H     DC1      DRUD     -1.88590      0.400000           0   0.00000       0.00000    
      1223 IM1H     62       IM1H     H1       HDA3A    0.135000       1.00800           0   0.00000       0.00000    
      1224 IM1H     62       IM1H     H2       HDA3A    0.135000       1.00800           0   0.00000       0.00000    
      1225 IM1H     62       IM1H     H3       HDA3A    0.135000       1.00800           0   0.00000       0.00000    
      1226 IM1H     62       IM1H     N1       ND2R5C    1.71300       13.6070           0 -0.803000       1.00000    
      1227 IM1H     62       IM1H     DN1      DRUD     -1.55500      0.400000           0   0.00000       0.00000    
      1228 IM1H     62       IM1H     C2       CD2R5D    1.69890       11.6110           0  -1.08300       1.10000    
      1229 IM1H     62       IM1H     DC2      DRUD     -1.80590      0.400000           0   0.00000       0.00000    
      1230 IM1H     62       IM1H     H4       HDR5D    0.195000       1.00800           0   0.00000       0.00000    
      1231 IM1H     62       IM1H     C3       CD2R5D    1.75890       11.6110           0  -1.08300       1.10000    
      1232 IM1H     62       IM1H     DC3      DRUD     -1.80590      0.400000           0   0.00000       0.00000    
      1233 IM1H     62       IM1H     H5       HDR5D    0.192000       1.00800           0   0.00000       0.00000    
      1234 IM1H     62       IM1H     C4       CD2R5E    1.91950       11.6110           0  -1.25300       1.20000    
      1235 IM1H     62       IM1H     DC4      DRUD     -1.94250      0.400000           0   0.00000       0.00000    
      1236 IM1H     62       IM1H     H6       HDR5E    0.203000       1.00800           0   0.00000       0.00000    
      1237 IM1H     62       IM1H     N2       ND2R5C    1.39800       13.6070           0 -0.803000       1.00000    
      1238 IM1H     62       IM1H     DN2      DRUD     -1.55500      0.400000           0   0.00000       0.00000    
      1239 IM1H     62       IM1H     H7       HDP1A    0.363000       1.00800           0   0.00000       0.00000    
      1240 IM1H     62       IM1H     LPN21    LPD       0.00000       0.00000          -1   0.00000       0.00000    
      1241 IM1H     63       IM1H     C1       CD33F     1.70390       11.6110           0  -1.18100       1.10000    
      1242 IM1H     63       IM1H     DC1      DRUD     -1.88590      0.400000           0   0.00000       0.00000    
      1243 IM1H     63       IM1H     H1       HDA3A    0.135000       1.00800           0   0.00000       0.00000    
      1244 IM1H     63       IM1H     H2       HDA3A    0.135000       1.00800           0   0.00000       0.00000    
      1245 IM1H     63       IM1H     H3       HDA3A    0.135000       1.00800           0   0.00000       0.00000    
      1246 IM1H     63       IM1H     N1       ND2R5C    1.71300       13.6070           0 -0.803000       1.00000    
      1247 IM1H     63       IM1H     DN1      DRUD     -1.55500      0.400000           0   0.00000       0.00000    
      1248 IM1H     63       IM1H     C2       CD2R5D    1.69890       11.6110           0  -1.08300       1.10000    
      1249 IM1H     63       IM1H     DC2      DRUD     -1.80590      0.400000           0   0.00000       0.00000    
      1250 IM1H     63       IM1H     H4       HDR5D    0.195000       1.00800           0   0.00000       0.00000    
      1251 IM1H     63       IM1H     C3       CD2R5D    1.75890       11.6110           0  -1.08300       1.10000    
      1252 IM1H     63       IM1H     DC3      DRUD     -1.80590      0.400000           0   0.00000       0.00000    
      1253 IM1H     63       IM1H     H5       HDR5D    0.192000       1.00800           0   0.00000       0.00000    
      1254 IM1H     63       IM1H     C4       CD2R5E    1.91950       11.6110           0  -1.25300       1.20000    
      1255 IM1H     63       IM1H     DC4      DRUD     -1.94250      0.400000           0   0.00000       0.00000    
      1256 IM1H     63       IM1H     H6       HDR5E    0.203000       1.00800           0   0.00000       0.00000    
      1257 IM1H     63       IM1H     N2       ND2R5C    1.39800       13.6070           0 -0.803000       1.00000    
      1258 IM1H     63       IM1H     DN2      DRUD     -1.55500      0.400000           0   0.00000       0.00000    
      1259 IM1H     63       IM1H     H7       HDP1A    0.363000       1.00800           0   0.00000       0.00000    
      1260 IM1H     63       IM1H     LPN21    LPD       0.00000       0.00000          -1   0.00000       0.00000    
      1261 IM1H     64       IM1H     C1       CD33F     1.70390       11.6110           0  -1.18100       1.10000    
      1262 IM1H     64       IM1H     DC1      DRUD     -1.88590      0.400000           0   0.00000       0.00000    
      1263 IM1H     64       IM1H     H1       HDA3A    0.135000       1.00800           0   0.00000       0.00000    
      1264 IM1H     64       IM1H     H2       HDA3A    0.135000       1.00800           0   0.00000       0.00000    
      1265 IM1H     64       IM1H     H3       HDA3A    0.135000       1.00800           0   0.00000       0.00000    
      1266 IM1H     64       IM1H     N1       ND2R5C    1.71300       13.6070           0 -0.803000       1.00000    
      1267 IM1H     64       IM1H     DN1      DRUD     -1.55500      0.400000           0   0.00000       0.00000    
      1268 IM1H     64       IM1H     C2       CD2R5D    1.69890       11.6110           0  -1.08300       1.10000    
      1269 IM1H     64       IM1H     DC2      DRUD     -1.80590      0.400000           0   0.00000       0.00000    
      1270 IM1H     64       IM1H     H4       HDR5D    0.195000       1.00800           0   0.00000       0.00000    
      1271 IM1H     64       IM1H     C3       CD2R5D    1.75890       11.6110           0  -1.08300       1.10000    
      1272 IM1H     64       IM1H     DC3      DRUD     -1.80590      0.400000           0   0.00000       0.00000    
      1273 IM1H     64       IM1H     H5       HDR5D    0.192000       1.00800           0   0.00000       0.00000    
      1274 IM1H     64       IM1H     C4       CD2R5E    1.91950       11.6110           0  -1.25300       1.20000    
      1275 IM1H     64       IM1H     DC4      DRUD     -1.94250      0.400000           0   0.00000       0.00000    
      1276 IM1H     64       IM1H     H6       HDR5E    0.203000       1.00800           0   0.00000       0.00000    
      1277 IM1H     64       IM1H     N2       ND2R5C    1.39800       13.6070           0 -0.803000       1.00000    
      1278 IM1H     64       IM1H     DN2      DRUD     -1.55500      0.400000           0   0.00000       0.00000    
      1279 IM1H     64       IM1H     H7       HDP1A    0.363000       1.00800           0   0.00000       0.00000    
      1280 IM1H     64       IM1H     LPN21    LPD       0.00000       0.00000          -1   0.00000       0.00000    
      1281 IM1H     65       IM1H     C1       CD33F     1.70390       11.6110           0  -1.18100       1.10000    
      1282 IM1H     65       IM1H     DC1      DRUD     -1.88590      0.400000           0   0.00000       0.00000    
      1283 IM1H     65       IM1H     H1       HDA3A    0.135000       1.00800           0   0.00000       0.00000    
      1284 IM1H     65       IM1H     H2       HDA3A    0.135000       1.00800           0   0.00000       0.00000    
      1285 IM1H     65       IM1H     H3       HDA3A    0.135000       1.00800           0   0.00000       0.00000    
      1286 IM1H     65       IM1H     N1       ND2R5C    1.71300       13.6070           0 -0.803000       1.00000    
      1287 IM1H     65       IM1H     DN1      DRUD     -1.55500      0.400000           0   0.00000       0.00000    
      1288 IM1H     65       IM1H     C2       CD2R5D    1.69890       11.6110           0  -1.08300       1.10000    
      1289 IM1H     65       IM1H     DC2      DRUD     -1.80590      0.400000           0   0.00000       0.00000    
      1290 IM1H     65       IM1H     H4       HDR5D    0.195000       1.00800           0   0.00000       0.00000    
      1291 IM1H     65       IM1H     C3       CD2R5D    1.75890       11.6110           0  -1.08300       1.10000    
      1292 IM1H     65       IM1H     DC3      DRUD     -1.80590      0.400000           0   0.00000       0.00000    
      1293 IM1H     65       IM1H     H5       HDR5D    0.192000       1.00800           0   0.00000       0.00000    
      1294 IM1H     65       IM1H     C4       CD2R5E    1.91950       11.6110           0  -1.25300       1.20000    
      1295 IM1H     65       IM1H     DC4      DRUD     -1.94250      0.400000           0   0.00000       0.00000    
      1296 IM1H     65       IM1H     H6       HDR5E    0.203000       1.00800           0   0.00000       0.00000    
      1297 IM1H     65       IM1H     N2       ND2R5C    1.39800       13.6070           0 -0.803000       1.00000    
      1298 IM1H     65       IM1H     DN2      DRUD     -1.55500      0.400000           0   0.00000       0.00000    
      1299 IM1H     65       IM1H     H7       HDP1A    0.363000       1.00800           0   0.00000       0.00000    
      1300 IM1H     65       IM1H     LPN21    LPD       0.00000       0.00000          -1   0.00000       0.00000    
      1301 IM1H     66       IM1H     C1       CD33F     1.70390       11.6110           0  -1.18100       1.10000    
      1302 IM1H     66       IM1H     DC1      DRUD     -1.88590      0.400000           0   0.00000       0.00000    
      1303 IM1H     66       IM1H     H1       HDA3A    0.135000       1.00800           0   0.00000       0.00000    
      1304 IM1H     66       IM1H     H2       HDA3A    0.135000       1.00800           0   0.00000       0.00000    
      1305 IM1H     66       IM1H     H3       HDA3A    0.135000       1.00800           0   0.00000       0.00000    
      1306 IM1H     66       IM1H     N1       ND2R5C    1.71300       13.6070           0 -0.803000       1.00000    
      1307 IM1H     66       IM1H     DN1      DRUD     -1.55500      0.400000           0   0.00000       0.00000    
      1308 IM1H     66       IM1H     C2       CD2R5D    1.69890       11.6110           0  -1.08300       1.10000    
      1309 IM1H     66       IM1H     DC2      DRUD     -1.80590      0.400000           0   0.00000       0.00000    
      1310 IM1H     66       IM1H     H4       HDR5D    0.195000       1.00800           0   0.00000       0.00000    
      1311 IM1H     66       IM1H     C3       CD2R5D    1.75890       11.6110           0  -1.08300       1.10000    
      1312 IM1H     66       IM1H     DC3      DRUD     -1.80590      0.400000           0   0.00000       0.00000    
      1313 IM1H     66       IM1H     H5       HDR5D    0.192000       1.00800           0   0.00000       0.00000    
      1314 IM1H     66       IM1H     C4       CD2R5E    1.91950       11.6110           0  -1.25300       1.20000    
      1315 IM1H     66       IM1H     DC4      DRUD     -1.94250      0.400000           0   0.00000       0.00000    
      1316 IM1H     66       IM1H     H6       HDR5E    0.203000       1.00800           0   0.00000       0.00000    
      1317 IM1H     66       IM1H     N2       ND2R5C    1.39800       13.6070           0 -0.803000       1.00000    
      1318 IM1H     66       IM1H     DN2      DRUD     -1.55500      0.400000           0   0.00000       0.00000    
      1319 IM1H     66       IM1H     H7       HDP1A    0.363000       1.00800           0   0.00000       0.00000    
      1320 IM1H     66       IM1H     LPN21    LPD       0.00000       0.00000          -1   0.00000       0.00000    
      1321 IM1H     67       IM1H     C1       CD33F     1.70390       11.6110           0  -1.18100       1.10000    
      1322 IM1H     67       IM1H     DC1      DRUD     -1.88590      0.400000           0   0.00000       0.00000    
      1323 IM1H     67       IM1H     H1       HDA3A    0.135000       1.00800           0   0.00000       0.00000    
      1324 IM1H     67       IM1H     H2       HDA3A    0.135000       1.00800           0   0.00000       0.00000    
      1325 IM1H     67       IM1H     H3       HDA3A    0.135000       1.00800           0   0.00000       0.00000    
      1326 IM1H     67       IM1H     N1       ND2R5C    1.71300       13.6070           0 -0.803000       1.00000    
      1327 IM1H     67       IM1H     DN1      DRUD     -1.55500      0.400000           0   0.00000       0.00000    
      1328 IM1H     67       IM1H     C2       CD2R5D    1.69890       11.6110           0  -1.08300       1.10000    
      1329 IM1H     67       IM1H     DC2      DRUD     -1.80590      0.400000           0   0.00000       0.00000    
      1330 IM1H     67       IM1H     H4       HDR5D    0.195000       1.00800           0   0.00000       0.00000    
      1331 IM1H     67       IM1H     C3       CD2R5D    1.75890       11.6110           0  -1.08300       1.10000    
      1332 IM1H     67       IM1H     DC3      DRUD     -1.80590      0.400000           0   0.00000       0.00000    
      1333 IM1H     67       IM1H     H5       HDR5D    0.192000       1.00800           0   0.00000       0.00000    
      1334 IM1H     67       IM1H     C4       CD2R5E    1.91950       11.6110           0  -1.25300       1.20000    
      1335 IM1H     67       IM1H     DC4      DRUD     -1.94250      0.400000           0   0.00000       0.00000    
      1336 IM1H     67       IM1H     H6       HDR5E    0.203000       1.00800           0   0.00000       0.00000    
      1337 IM1H     67       IM1H     N2       ND2R5C    1.39800       13.6070           0 -0.803000       1.00000    
      1338 IM1H     67       IM1H     DN2      DRUD     -1.55500      0.400000           0   0.00000       0.00000    
      1339 IM1H     67       IM1H     H7       HDP1A    0.363000       1.00800           0   0.00000       0.00000    
      1340 IM1H     67       IM1H     LPN21    LPD       0.00000       0.00000          -1   0.00000       0.00000    
      1341 IM1H     68       IM1H     C1       CD33F     1.70390       11.6110           0  -1.18100       1.10000    
      1342 IM1H     68       IM1H     DC1      DRUD     -1.88590      0.400000           0   0.00000       0.00000    
      1343 IM1H     68       IM1H     H1       HDA3A    0.135000       1.00800           0   0.00000       0.00000    
      1344 IM1H     68       IM1H     H2       HDA3A    0.135000       1.00800           0   0.00000       0.00000    
      1345 IM1H     68       IM1H     H3       HDA3A    0.135000       1.00800           0   0.00000       0.00000    
      1346 IM1H     68       IM1H     N1       ND2R5C    1.71300       13.6070           0 -0.803000       1.00000    
      1347 IM1H     68       IM1H     DN1      DRUD     -1.55500      0.400000           0   0.00000       0.00000    
      1348 IM1H     68       IM1H     C2       CD2R5D    1.69890       11.6110           0  -1.08300       1.10000    
      1349 IM1H     68       IM1H     DC2      DRUD     -1.80590      0.400000           0   0.00000       0.00000    
      1350 IM1H     68       IM1H     H4       HDR5D    0.195000       1.00800           0   0.00000       0.00000    
      1351 IM1H     68       IM1H     C3       CD2R5D    1.75890       11.6110           0  -1.08300       1.10000    
      1352 IM1H     68       IM1H     DC3      DRUD     -1.80590      0.400000           0   0.00000       0.00000    
      1353 IM1H     68       IM1H     H5       HDR5D    0.192000       1.00800           0   0.00000       0.00000    
      1354 IM1H     68       IM1H     C4       CD2R5E    1.91950       11.6110           0  -1.25300       1.20000    
      1355 IM1H     68       IM1H     DC4      DRUD     -1.94250      0.400000           0   0.00000       0.00000    
      1356 IM1H     68       IM1H     H6       HDR5E    0.203000       1.00800           0   0.00000       0.00000    
      1357 IM1H     68       IM1H     N2       ND2R5C    1.39800       13.6070           0 -0.803000       1.00000    
      1358 IM1H     68       IM1H     DN2      DRUD     -1.55500      0.400000           0   0.00000       0.00000    
      1359 IM1H     68       IM1H     H7       HDP1A    0.363000       1.00800           0   0.00000       0.00000    
      1360 IM1H     68       IM1H     LPN21    LPD       0.00000       0.00000          -1   0.00000       0.00000    
      1361 IM1H     69       IM1H     C1       CD33F     1.70390       11.6110           0  -1.18100       1.10000    
      1362 IM1H     69       IM1H     DC1      DRUD     -1.88590      0.400000           0   0.00000       0.00000    
      1363 IM1H     69       IM1H     H1       HDA3A    0.135000       1.00800           0   0.00000       0.00000    
      1364 IM1H     69       IM1H     H2       HDA3A    0.135000       1.00800           0   0.00000       0.00000    
      1365 IM1H     69       IM1H     H3       HDA3A    0.135000       1.00800           0   0.00000       0.00000    
      1366 IM1H     69       IM1H     N1       ND2R5C    1.71300       13.6070           0 -0.803000       1.00000    
      1367 IM1H     69       IM1H     DN1      DRUD     -1.55500      0.400000           0   0.00000       0.00000    
      1368 IM1H     69       IM1H     C2       CD2R5D    1.69890       11.6110           0  -1.08300       1.10000    
      1369 IM1H     69       IM1H     DC2      DRUD     -1.80590      0.400000           0   0.00000       0.00000    
      1370 IM1H     69       IM1H     H4       HDR5D    0.195000       1.00800           0   0.00000       0.00000    
      1371 IM1H     69       IM1H     C3       CD2R5D    1.75890       11.6110           0  -1.08300       1.10000    
      1372 IM1H     69       IM1H     DC3      DRUD     -1.80590      0.400000           0   0.00000       0.00000    
      1373 IM1H     69       IM1H     H5       HDR5D    0.192000       1.00800           0   0.00000       0.00000    
      1374 IM1H     69       IM1H     C4       CD2R5E    1.91950       11.6110           0  -1.25300       1.20000    
      1375 IM1H     69       IM1H     DC4      DRUD     -1.94250      0.400000           0   0.00000       0.00000    
      1376 IM1H     69       IM1H     H6       HDR5E    0.203000       1.00800           0   0.00000       0.00000    
      1377 IM1H     69       IM1H     N2       ND2R5C    1.39800       13.6070           0 -0.803000       1.00000    
      1378 IM1H     69       IM1H     DN2      DRUD     -1.55500      0.400000           0   0.00000       0.00000    
      1379 IM1H     69       IM1H     H7       HDP1A    0.363000       1.00800           0   0.00000       0.00000    
      1380 IM1H     69       IM1H     LPN21    LPD       0.00000       0.00000          -1   0.00000       0.00000    
      1381 IM1H     70       IM1H     C1       CD33F     1.70390       11.6110           0  -1.18100       1.10000    
      1382 IM1H     70       IM1H     DC1      DRUD     -1.88590      0.400000           0   0.00000       0.00000    
      1383 IM1H     70       IM1H     H1       HDA3A    0.135000       1.00800           0   0.00000       0.00000    
      1384 IM1H     70       IM1H     H2       HDA3A    0.135000       1.00800           0   0.00000       0.00000    
      1385 IM1H     70       IM1H     H3       HDA3A    0.135000       1.00800           0   0.00000       0.00000    
      1386 IM1H     70       IM1H     N1       ND2R5C    1.71300       13.6070           0 -0.803000       1.00000    
      1387 IM1H     70       IM1H     DN1      DRUD     -1.55500      0.400000           0   0.00000       0.00000    
      1388 IM1H     70       IM1H     C2       CD2R5D    1.69890       11.6110           0  -1.08300       1.10000    
      1389 IM1H     70       IM1H     DC2      DRUD     -1.80590      0.400000           0   0.00000       0.00000    
      1390 IM1H     70       IM1H     H4       HDR5D    0.195000       1.00800           0   0.00000       0.00000    
      1391 IM1H     70       IM1H     C3       CD2R5D    1.75890       11.6110           0  -1.08300       1.10000    
      1392 IM1H     70       IM1H     DC3      DRUD     -1.80590      0.400000           0   0.00000       0.00000    
      1393 IM1H     70       IM1H     H5       HDR5D    0.192000       1.00800           0   0.00000       0.00000    
      1394 IM1H     70       IM1H     C4       CD2R5E    1.91950       11.6110           0  -1.25300       1.20000    
      1395 IM1H     70       IM1H     DC4      DRUD     -1.94250      0.400000           0   0.00000       0.00000    
      1396 IM1H     70       IM1H     H6       HDR5E    0.203000       1.00800           0   0.00000       0.00000    
      1397 IM1H     70       IM1H     N2       ND2R5C    1.39800       13.6070           0 -0.803000       1.00000    
      1398 IM1H     70       IM1H     DN2      DRUD     -1.55500      0.400000           0   0.00000       0.00000    
      1399 IM1H     70       IM1H     H7       HDP1A    0.363000       1.00800           0   0.00000       0.00000    
      1400 IM1H     70       IM1H     LPN21    LPD       0.00000       0.00000          -1   0.00000       0.00000    
      1401 IM1H     71       IM1H     C1       CD33F     1.70390       11.6110           0  -1.18100       1.10000    
      1402 IM1H     71       IM1H     DC1      DRUD     -1.88590      0.400000           0   0.00000       0.00000    
      1403 IM1H     71       IM1H     H1       HDA3A    0.135000       1.00800           0   0.00000       0.00000    
      1404 IM1H     71       IM1H     H2       HDA3A    0.135000       1.00800           0   0.00000       0.00000    
      1405 IM1H     71       IM1H     H3       HDA3A    0.135000       1.00800           0   0.00000       0.00000    
      1406 IM1H     71       IM1H     N1       ND2R5C    1.71300       13.6070           0 -0.803000       1.00000    
      1407 IM1H     71       IM1H     DN1      DRUD     -1.55500      0.400000           0   0.00000       0.00000    
      1408 IM1H     71       IM1H     C2       CD2R5D    1.69890       11.6110           0  -1.08300       1.10000    
      1409 IM1H     71       IM1H     DC2      DRUD     -1.80590      0.400000           0   0.00000       0.00000    
      1410 IM1H     71       IM1H     H4       HDR5D    0.195000       1.00800           0   0.00000       0.00000    
      1411 IM1H     71       IM1H     C3       CD2R5D    1.75890       11.6110           0  -1.08300       1.10000    
      1412 IM1H     71       IM1H     DC3      DRUD     -1.80590      0.400000           0   0.00000       0.00000    
      1413 IM1H     71       IM1H     H5       HDR5D    0.192000       1.00800           0   0.00000       0.00000    
      1414 IM1H     71       IM1H     C4       CD2R5E    1.91950       11.6110           0  -1.25300       1.20000    
      1415 IM1H     71       IM1H     DC4      DRUD     -1.94250      0.400000           0   0.00000       0.00000    
      1416 IM1H     71       IM1H     H6       HDR5E    0.203000       1.00800           0   0.00000       0.00000    
      1417 IM1H     71       IM1H     N2       ND2R5C    1.39800       13.6070           0 -0.803000       1.00000    
      1418 IM1H     71       IM1H     DN2      DRUD     -1.55500      0.400000           0   0.00000       0.00000    
      1419 IM1H     71       IM1H     H7       HDP1A    0.363000       1.00800           0   0.00000       0.00000    
      1420 IM1H     71       IM1H     LPN21    LPD       0.00000       0.00000          -1   0.00000       0.00000    
      1421 IM1H     72       IM1H     C1       CD33F     1.70390       11.6110           0  -1.18100       1.10000    
      1422 IM1H     72       IM1H     DC1      DRUD     -1.88590      0.400000           0   0.00000       0.00000    
      1423 IM1H     72       IM1H     H1       HDA3A    0.135000       1.00800           0   0.00000       0.00000    
      1424 IM1H     72       IM1H     H2       HDA3A    0.135000       1.00800           0   0.00000       0.00000    
      1425 IM1H     72       IM1H     H3       HDA3A    0.135000       1.00800           0   0.00000       0.00000    
      1426 IM1H     72       IM1H     N1       ND2R5C    1.71300       13.6070           0 -0.803000       1.00000    
      1427 IM1H     72       IM1H     DN1      DRUD     -1.55500      0.400000           0   0.00000       0.00000    
      1428 IM1H     72       IM1H     C2       CD2R5D    1.69890       11.6110           0  -1.08300       1.10000    
      1429 IM1H     72       IM1H     DC2      DRUD     -1.80590      0.400000           0   0.00000       0.00000    
      1430 IM1H     72       IM1H     H4       HDR5D    0.195000       1.00800           0   0.00000       0.00000    
      1431 IM1H     72       IM1H     C3       CD2R5D    1.75890       11.6110           0  -1.08300       1.10000    
      1432 IM1H     72       IM1H     DC3      DRUD     -1.80590      0.400000           0   0.00000       0.00000    
      1433 IM1H     72       IM1H     H5       HDR5D    0.192000       1.00800           0   0.00000       0.00000    
      1434 IM1H     72       IM1H     C4       CD2R5E    1.91950       11.6110           0  -1.25300       1.20000    
      1435 IM1H     72       IM1H     DC4      DRUD     -1.94250      0.400000           0   0.00000       0.00000    
      1436 IM1H     72       IM1H     H6       HDR5E    0.203000       1.00800           0   0.00000       0.00000    
      1437 IM1H     72       IM1H     N2       ND2R5C    1.39800       13.6070           0 -0.803000       1.00000    
      1438 IM1H     72       IM1H     DN2      DRUD     -1.55500      0.400000           0   0.00000       0.00000    
      1439 IM1H     72       IM1H     H7       HDP1A    0.363000       1.00800           0   0.00000       0.00000    
      1440 IM1H     72       IM1H     LPN21    LPD       0.00000       0.00000          -1   0.00000       0.00000    
      1441 IM1H     73       IM1H     C1       CD33F     1.70390       11.6110           0  -1.18100       1.10000    
      1442 IM1H     73       IM1H     DC1      DRUD     -1.88590      0.400000           0   0.00000       0.00000    
      1443 IM1H     73       IM1H     H1       HDA3A    0.135000       1.00800           0   0.00000       0.00000    
      1444 IM1H     73       IM1H     H2       HDA3A    0.135000       1.00800           0   0.00000       0.00000    
      1445 IM1H     73       IM1H     H3       HDA3A    0.135000       1.00800           0   0.00000       0.00000    
      1446 IM1H     73       IM1H     N1       ND2R5C    1.71300       13.6070           0 -0.803000       1.00000    
      1447 IM1H     73       IM1H     DN1      DRUD     -1.55500      0.400000           0   0.00000       0.00000    
      1448 IM1H     73       IM1H     C2       CD2R5D    1.69890       11.6110           0  -1.08300       1.10000    
      1449 IM1H     73       IM1H     DC2      DRUD     -1.80590      0.400000           0   0.00000       0.00000    
      1450 IM1H     73       IM1H     H4       HDR5D    0.195000       1.00800           0   0.00000       0.00000    
      1451 IM1H     73       IM1H     C3       CD2R5D    1.75890       11.6110           0  -1.08300       1.10000    
      1452 IM1H     73       IM1H     DC3      DRUD     -1.80590      0.400000           0   0.00000       0.00000    
      1453 IM1H     73       IM1H     H5       HDR5D    0.192000       1.00800           0   0.00000       0.00000    
      1454 IM1H     73       IM1H     C4       CD2R5E    1.91950       11.6110           0  -1.25300       1.20000    
      1455 IM1H     73       IM1H     DC4      DRUD     -1.94250      0.400000           0   0.00000       0.00000    
      1456 IM1H     73       IM1H     H6       HDR5E    0.203000       1.00800           0   0.00000       0.00000    
      1457 IM1H     73       IM1H     N2       ND2R5C    1.39800       13.6070           0 -0.803000       1.00000    
      1458 IM1H     73       IM1H     DN2      DRUD     -1.55500      0.400000           0   0.00000       0.00000    
      1459 IM1H     73       IM1H     H7       HDP1A    0.363000       1.00800           0   0.00000       0.00000    
      1460 IM1H     73       IM1H     LPN21    LPD       0.00000       0.00000          -1   0.00000       0.00000    
      1461 IM1H     74       IM1H     C1       CD33F     1.70390       11.6110           0  -1.18100       1.10000    
      1462 IM1H     74       IM1H     DC1      DRUD     -1.88590      0.400000           0   0.00000       0.00000    
      1463 IM1H     74       IM1H     H1       HDA3A    0.135000       1.00800           0   0.00000       0.00000    
      1464 IM1H     74       IM1H     H2       HDA3A    0.135000       1.00800           0   0.00000       0.00000    
      1465 IM1H     74       IM1H     H3       HDA3A    0.135000       1.00800           0   0.00000       0.00000    
      1466 IM1H     74       IM1H     N1       ND2R5C    1.71300       13.6070           0 -0.803000       1.00000    
      1467 IM1H     74       IM1H     DN1      DRUD     -1.55500      0.400000           0   0.00000       0.00000    
      1468 IM1H     74       IM1H     C2       CD2R5D    1.69890       11.6110           0  -1.08300       1.10000    
      1469 IM1H     74       IM1H     DC2      DRUD     -1.80590      0.400000           0   0.00000       0.00000    
      1470 IM1H     74       IM1H     H4       HDR5D    0.195000       1.00800           0   0.00000       0.00000    
      1471 IM1H     74       IM1H     C3       CD2R5D    1.75890       11.6110           0  -1.08300       1.10000    
      1472 IM1H     74       IM1H     DC3      DRUD     -1.80590      0.400000           0   0.00000       0.00000    
      1473 IM1H     74       IM1H     H5       HDR5D    0.192000       1.00800           0   0.00000       0.00000    
      1474 IM1H     74       IM1H     C4       CD2R5E    1.91950       11.6110           0  -1.25300       1.20000    
      1475 IM1H     74       IM1H     DC4      DRUD     -1.94250      0.400000           0   0.00000       0.00000    
      1476 IM1H     74       IM1H     H6       HDR5E    0.203000       1.00800           0   0.00000       0.00000    
      1477 IM1H     74       IM1H     N2       ND2R5C    1.39800       13.6070           0 -0.803000       1.00000    
      1478 IM1H     74       IM1H     DN2      DRUD     -1.55500      0.400000           0   0.00000       0.00000    
      1479 IM1H     74       IM1H     H7       HDP1A    0.363000       1.00800           0   0.00000       0.00000    
      1480 IM1H     74       IM1H     LPN21    LPD       0.00000       0.00000          -1   0.00000       0.00000    
      1481 IM1H     75       IM1H     C1       CD33F     1.70390       11.6110           0  -1.18100       1.10000    
      1482 IM1H     75       IM1H     DC1      DRUD     -1.88590      0.400000           0   0.00000       0.00000    
      1483 IM1H     75       IM1H     H1       HDA3A    0.135000       1.00800           0   0.00000       0.00000    
      1484 IM1H     75       IM1H     H2       HDA3A    0.135000       1.00800           0   0.00000       0.00000    
      1485 IM1H     75       IM1H     H3       HDA3A    0.135000       1.00800           0   0.00000       0.00000    
      1486 IM1H     75       IM1H     N1       ND2R5C    1.71300       13.6070           0 -0.803000       1.00000    
      1487 IM1H     75       IM1H     DN1      DRUD     -1.55500      0.400000           0   0.00000       0.00000    
      1488 IM1H     75       IM1H     C2       CD2R5D    1.69890       11.6110           0  -1.08300       1.10000    
      1489 IM1H     75       IM1H     DC2      DRUD     -1.80590      0.400000           0   0.00000       0.00000    
      1490 IM1H     75       IM1H     H4       HDR5D    0.195000       1.00800           0   0.00000       0.00000    
      1491 IM1H     75       IM1H     C3       CD2R5D    1.75890       11.6110           0  -1.08300       1.10000    
      1492 IM1H     75       IM1H     DC3      DRUD     -1.80590      0.400000           0   0.00000       0.00000    
      1493 IM1H     75       IM1H     H5       HDR5D    0.192000       1.00800           0   0.00000       0.00000    
      1494 IM1H     75       IM1H     C4       CD2R5E    1.91950       11.6110           0  -1.25300       1.20000    
      1495 IM1H     75       IM1H     DC4      DRUD     -1.94250      0.400000           0   0.00000       0.00000    
      1496 IM1H     75       IM1H     H6       HDR5E    0.203000       1.00800           0   0.00000       0.00000    
      1497 IM1H     75       IM1H     N2       ND2R5C    1.39800       13.6070           0 -0.803000       1.00000    
      1498 IM1H     75       IM1H     DN2      DRUD     -1.55500      0.400000           0   0.00000       0.00000    
      1499 IM1H     75       IM1H     H7       HDP1A    0.363000       1.00800           0   0.00000       0.00000    
      1500 IM1H     75       IM1H     LPN21    LPD       0.00000       0.00000          -1   0.00000       0.00000    
      1501 IM1H     76       IM1H     C1       CD33F     1.70390       11.6110           0  -1.18100       1.10000    
      1502 IM1H     76       IM1H     DC1      DRUD     -1.88590      0.400000           0   0.00000       0.00000    
      1503 IM1H     76       IM1H     H1       HDA3A    0.135000       1.00800           0   0.00000       0.00000    
      1504 IM1H     76       IM1H     H2       HDA3A    0.135000       1.00800           0   0.00000       0.00000    
      1505 IM1H     76       IM1H     H3       HDA3A    0.135000       1.00800           0   0.00000       0.00000    
      1506 IM1H     76       IM1H     N1       ND2R5C    1.71300       13.6070           0 -0.803000       1.00000    
      1507 IM1H     76       IM1H     DN1      DRUD     -1.55500      0.400000           0   0.00000       0.00000    
      1508 IM1H     76       IM1H     C2       CD2R5D    1.69890       11.6110           0  -1.08300       1.10000    
      1509 IM1H     76       IM1H     DC2      DRUD     -1.80590      0.400000           0   0.00000       0.00000    
      1510 IM1H     76       IM1H     H4       HDR5D    0.195000       1.00800           0   0.00000       0.00000    
      1511 IM1H     76       IM1H     C3       CD2R5D    1.75890       11.6110           0  -1.08300       1.10000    
      1512 IM1H     76       IM1H     DC3      DRUD     -1.80590      0.400000           0   0.00000       0.00000    
      1513 IM1H     76       IM1H     H5       HDR5D    0.192000       1.00800           0   0.00000       0.00000    
      1514 IM1H     76       IM1H     C4       CD2R5E    1.91950       11.6110           0  -1.25300       1.20000    
      1515 IM1H     76       IM1H     DC4      DRUD     -1.94250      0.400000           0   0.00000       0.00000    
      1516 IM1H     76       IM1H     H6       HDR5E    0.203000       1.00800           0   0.00000       0.00000    
      1517 IM1H     76       IM1H     N2       ND2R5C    1.39800       13.6070           0 -0.803000       1.00000    
      1518 IM1H     76       IM1H     DN2      DRUD     -1.55500      0.400000           0   0.00000       0.00000    
      1519 IM1H     76       IM1H     H7       HDP1A    0.363000       1.00800           0   0.00000       0.00000    
      1520 IM1H     76       IM1H     LPN21    LPD       0.00000       0.00000          -1   0.00000       0.00000    
      1521 IM1H     77       IM1H     C1       CD33F     1.70390       11.6110           0  -1.18100       1.10000    
      1522 IM1H     77       IM1H     DC1      DRUD     -1.88590      0.400000           0   0.00000       0.00000    
      1523 IM1H     77       IM1H     H1       HDA3A    0.135000       1.00800           0   0.00000       0.00000    
      1524 IM1H     77       IM1H     H2       HDA3A    0.135000       1.00800           0   0.00000       0.00000    
      1525 IM1H     77       IM1H     H3       HDA3A    0.135000       1.00800           0   0.00000       0.00000    
      1526 IM1H     77       IM1H     N1       ND2R5C    1.71300       13.6070           0 -0.803000       1.00000    
      1527 IM1H     77       IM1H     DN1      DRUD     -1.55500      0.400000           0   0.00000       0.00000    
      1528 IM1H     77       IM1H     C2       CD2R5D    1.69890       11.6110           0  -1.08300       1.10000    
      1529 IM1H     77       IM1H     DC2      DRUD     -1.80590      0.400000           0   0.00000       0.00000    
      1530 IM1H     77       IM1H     H4       HDR5D    0.195000       1.00800           0   0.00000       0.00000    
      1531 IM1H     77       IM1H     C3       CD2R5D    1.75890       11.6110           0  -1.08300       1.10000    
      1532 IM1H     77       IM1H     DC3      DRUD     -1.80590      0.400000           0   0.00000       0.00000    
      1533 IM1H     77       IM1H     H5       HDR5D    0.192000       1.00800           0   0.00000       0.00000    
      1534 IM1H     77       IM1H     C4       CD2R5E    1.91950       11.6110           0  -1.25300       1.20000    
      1535 IM1H     77       IM1H     DC4      DRUD     -1.94250      0.400000           0   0.00000       0.00000    
      1536 IM1H     77       IM1H     H6       HDR5E    0.203000       1.00800           0   0.00000       0.00000    
      1537 IM1H     77       IM1H     N2       ND2R5C    1.39800       13.6070           0 -0.803000       1.00000    
      1538 IM1H     77       IM1H     DN2      DRUD     -1.55500      0.400000           0   0.00000       0.00000    
      1539 IM1H     77       IM1H     H7       HDP1A    0.363000       1.00800           0   0.00000       0.00000    
      1540 IM1H     77       IM1H     LPN21    LPD       0.00000       0.00000          -1   0.00000       0.00000    
      1541 IM1H     78       IM1H     C1       CD33F     1.70390       11.6110           0  -1.18100       1.10000    
      1542 IM1H     78       IM1H     DC1      DRUD     -1.88590      0.400000           0   0.00000       0.00000    
      1543 IM1H     78       IM1H     H1       HDA3A    0.135000       1.00800           0   0.00000       0.00000    
      1544 IM1H     78       IM1H     H2       HDA3A    0.135000       1.00800           0   0.00000       0.00000    
      1545 IM1H     78       IM1H     H3       HDA3A    0.135000       1.00800           0   0.00000       0.00000    
      1546 IM1H     78       IM1H     N1       ND2R5C    1.71300       13.6070           0 -0.803000       1.00000    
      1547 IM1H     78       IM1H     DN1      DRUD     -1.55500      0.400000           0   0.00000       0.00000    
      1548 IM1H     78       IM1H     C2       CD2R5D    1.69890       11.6110           0  -1.08300       1.10000    
      1549 IM1H     78       IM1H     DC2      DRUD     -1.80590      0.400000           0   0.00000       0.00000    
      1550 IM1H     78       IM1H     H4       HDR5D    0.195000       1.00800           0   0.00000       0.00000    
      1551 IM1H     78       IM1H     C3       CD2R5D    1.75890       11.6110           0  -1.08300       1.10000    
      1552 IM1H     78       IM1H     DC3      DRUD     -1.80590      0.400000           0   0.00000       0.00000    
      1553 IM1H     78       IM1H     H5       HDR5D    0.192000       1.00800           0   0.00000       0.00000    
      1554 IM1H     78       IM1H     C4       CD2R5E    1.91950       11.6110           0  -1.25300       1.20000    
      1555 IM1H     78       IM1H     DC4      DRUD     -1.94250      0.400000           0   0.00000       0.00000    
      1556 IM1H     78       IM1H     H6       HDR5E    0.203000       1.00800           0   0.00000       0.00000    
      1557 IM1H     78       IM1H     N2       ND2R5C    1.39800       13.6070           0 -0.803000       1.00000    
      1558 IM1H     78       IM1H     DN2      DRUD     -1.55500      0.400000           0   0.00000       0.00000    
      1559 IM1H     78       IM1H     H7       HDP1A    0.363000       1.00800           0   0.00000       0.00000    
      1560 IM1H     78       IM1H     LPN21    LPD       0.00000       0.00000          -1   0.00000       0.00000    
      1561 IM1H     79       IM1H     C1       CD33F     1.70390       11.6110           0  -1.18100       1.10000    
      1562 IM1H     79       IM1H     DC1      DRUD     -1.88590      0.400000           0   0.00000       0.00000    
      1563 IM1H     79       IM1H     H1       HDA3A    0.135000       1.00800           0   0.00000       0.00000    
      1564 IM1H     79       IM1H     H2       HDA3A    0.135000       1.00800           0   0.00000       0.00000    
      1565 IM1H     79       IM1H     H3       HDA3A    0.135000       1.00800           0   0.00000       0.00000    
      1566 IM1H     79       IM1H     N1       ND2R5C    1.71300       13.6070           0 -0.803000       1.00000    
      1567 IM1H     79       IM1H     DN1      DRUD     -1.55500      0.400000           0   0.00000       0.00000    
      1568 IM1H     79       IM1H     C2       CD2R5D    1.69890       11.6110           0  -1.08300       1.10000    
      1569 IM1H     79       IM1H     DC2      DRUD     -1.80590      0.400000           0   0.00000       0.00000    
      1570 IM1H     79       IM1H     H4       HDR5D    0.195000       1.00800           0   0.00000       0.00000    
      1571 IM1H     79       IM1H     C3       CD2R5D    1.75890       11.6110           0  -1.08300       1.10000    
      1572 IM1H     79       IM1H     DC3      DRUD     -1.80590      0.400000           0   0.00000       0.00000    
      1573 IM1H     79       IM1H     H5       HDR5D    0.192000       1.00800           0   0.00000       0.00000    
      1574 IM1H     79       IM1H     C4       CD2R5E    1.91950       11.6110           0  -1.25300       1.20000    
      1575 IM1H     79       IM1H     DC4      DRUD     -1.94250      0.400000           0   0.00000       0.00000    
      1576 IM1H     79       IM1H     H6       HDR5E    0.203000       1.00800           0   0.00000       0.00000    
      1577 IM1H     79       IM1H     N2       ND2R5C    1.39800       13.6070           0 -0.803000       1.00000    
      1578 IM1H     79       IM1H     DN2      DRUD     -1.55500      0.400000           0   0.00000       0.00000    
      1579 IM1H     79       IM1H     H7       HDP1A    0.363000       1.00800           0   0.00000       0.00000    
      1580 IM1H     79       IM1H     LPN21    LPD       0.00000       0.00000          -1   0.00000       0.00000    
      1581 IM1H     80       IM1H     C1       CD33F     1.70390       11.6110           0  -1.18100       1.10000    
      1582 IM1H     80       IM1H     DC1      DRUD     -1.88590      0.400000           0   0.00000       0.00000    
      1583 IM1H     80       IM1H     H1       HDA3A    0.135000       1.00800           0   0.00000       0.00000    
      1584 IM1H     80       IM1H     H2       HDA3A    0.135000       1.00800           0   0.00000       0.00000    
      1585 IM1H     80       IM1H     H3       HDA3A    0.135000       1.00800           0   0.00000       0.00000    
      1586 IM1H     80       IM1H     N1       ND2R5C    1.71300       13.6070           0 -0.803000       1.00000    
      1587 IM1H     80       IM1H     DN1      DRUD     -1.55500      0.400000           0   0.00000       0.00000    
      1588 IM1H     80       IM1H     C2       CD2R5D    1.69890       11.6110           0  -1.08300       1.10000    
      1589 IM1H     80       IM1H     DC2      DRUD     -1.80590      0.400000           0   0.00000       0.00000    
      1590 IM1H     80       IM1H     H4       HDR5D    0.195000       1.00800           0   0.00000       0.00000    
      1591 IM1H     80       IM1H     C3       CD2R5D    1.75890       11.6110           0  -1.08300       1.10000    
      1592 IM1H     80       IM1H     DC3      DRUD     -1.80590      0.400000           0   0.00000       0.00000    
      1593 IM1H     80       IM1H     H5       HDR5D    0.192000       1.00800           0   0.00000       0.00000    
      1594 IM1H     80       IM1H     C4       CD2R5E    1.91950       11.6110           0  -1.25300       1.20000    
      1595 IM1H     80       IM1H     DC4      DRUD     -1.94250      0.400000           0   0.00000       0.00000    
      1596 IM1H     80       IM1H     H6       HDR5E    0.203000       1.00800           0   0.00000       0.00000    
      1597 IM1H     80       IM1H     N2       ND2R5C    1.39800       13.6070           0 -0.803000       1.00000    
      1598 IM1H     80       IM1H     DN2      DRUD     -1.55500      0.400000           0   0.00000       0.00000    
      1599 IM1H     80       IM1H     H7       HDP1A    0.363000       1.00800           0   0.00000       0.00000    
      1600 IM1H     80       IM1H     LPN21    LPD       0.00000       0.00000          -1   0.00000       0.00000    
      1601 IM1H     81       IM1H     C1       CD33F     1.70390       11.6110           0  -1.18100       1.10000    
      1602 IM1H     81       IM1H     DC1      DRUD     -1.88590      0.400000           0   0.00000       0.00000    
      1603 IM1H     81       IM1H     H1       HDA3A    0.135000       1.00800           0   0.00000       0.00000    
      1604 IM1H     81       IM1H     H2       HDA3A    0.135000       1.00800           0   0.00000       0.00000    
      1605 IM1H     81       IM1H     H3       HDA3A    0.135000       1.00800           0   0.00000       0.00000    
      1606 IM1H     81       IM1H     N1       ND2R5C    1.71300       13.6070           0 -0.803000       1.00000    
      1607 IM1H     81       IM1H     DN1      DRUD     -1.55500      0.400000           0   0.00000       0.00000    
      1608 IM1H     81       IM1H     C2       CD2R5D    1.69890       11.6110           0  -1.08300       1.10000    
      1609 IM1H     81       IM1H     DC2      DRUD     -1.80590      0.400000           0   0.00000       0.00000    
      1610 IM1H     81       IM1H     H4       HDR5D    0.195000       1.00800           0   0.00000       0.00000    
      1611 IM1H     81       IM1H     C3       CD2R5D    1.75890       11.6110           0  -1.08300       1.10000    
      1612 IM1H     81       IM1H     DC3      DRUD     -1.80590      0.400000           0   0.00000       0.00000    
      1613 IM1H     81       IM1H     H5       HDR5D    0.192000       1.00800           0   0.00000       0.00000    
      1614 IM1H     81       IM1H     C4       CD2R5E    1.91950       11.6110           0  -1.25300       1.20000    
      1615 IM1H     81       IM1H     DC4      DRUD     -1.94250      0.400000           0   0.00000       0.00000    
      1616 IM1H     81       IM1H     H6       HDR5E    0.203000       1.00800           0   0.00000       0.00000    
      1617 IM1H     81       IM1H     N2       ND2R5C    1.39800       13.6070           0 -0.803000       1.00000    
      1618 IM1H     81       IM1H     DN2      DRUD     -1.55500      0.400000           0   0.00000       0.00000    
      1619 IM1H     81       IM1H     H7       HDP1A    0.363000       1.00800           0   0.00000       0.00000    
      1620 IM1H     81       IM1H     LPN21    LPD       0.00000       0.00000          -1   0.00000       0.00000    
      1621 IM1H     82       IM1H     C1       CD33F     1.70390       11.6110           0  -1.18100       1.10000    
      1622 IM1H     82       IM1H     DC1      DRUD     -1.88590      0.400000           0   0.00000       0.00000    
      1623 IM1H     82       IM1H     H1       HDA3A    0.135000       1.00800           0   0.00000       0.00000    
      1624 IM1H     82       IM1H     H2       HDA3A    0.135000       1.00800           0   0.00000       0.00000    
      1625 IM1H     82       IM1H     H3       HDA3A    0.135000       1.00800           0   0.00000       0.00000    
      1626 IM1H     82       IM1H     N1       ND2R5C    1.71300       13.6070           0 -0.803000       1.00000    
      1627 IM1H     82       IM1H     DN1      DRUD     -1.55500      0.400000           0   0.00000       0.00000    
      1628 IM1H     82       IM1H     C2       CD2R5D    1.69890       11.6110           0  -1.08300       1.10000    
      1629 IM1H     82       IM1H     DC2      DRUD     -1.80590      0.400000           0   0.00000       0.00000    
      1630 IM1H     82       IM1H     H4       HDR5D    0.195000       1.00800           0   0.00000       0.00000    
      1631 IM1H     82       IM1H     C3       CD2R5D    1.75890       11.6110           0  -1.08300       1.10000    
      1632 IM1H     82       IM1H     DC3      DRUD     -1.80590      0.400000           0   0.00000       0.00000    
      1633 IM1H     82       IM1H     H5       HDR5D    0.192000       1.00800           0   0.00000       0.00000    
      1634 IM1H     82       IM1H     C4       CD2R5E    1.91950       11.6110           0  -1.25300       1.20000    
      1635 IM1H     82       IM1H     DC4      DRUD     -1.94250      0.400000           0   0.00000       0.00000    
      1636 IM1H     82       IM1H     H6       HDR5E    0.203000       1.00800           0   0.00000       0.00000    
      1637 IM1H     82       IM1H     N2       ND2R5C    1.39800       13.6070           0 -0.803000       1.00000    
      1638 IM1H     82       IM1H     DN2      DRUD     -1.55500      0.400000           0   0.00000       0.00000    
      1639 IM1H     82       IM1H     H7       HDP1A    0.363000       1.00800           0   0.00000       0.00000    
      1640 IM1H     82       IM1H     LPN21    LPD       0.00000       0.00000          -1   0.00000       0.00000    
      1641 IM1H     83       IM1H     C1       CD33F     1.70390       11.6110           0  -1.18100       1.10000    
      1642 IM1H     83       IM1H     DC1      DRUD     -1.88590      0.400000           0   0.00000       0.00000    
      1643 IM1H     83       IM1H     H1       HDA3A    0.135000       1.00800           0   0.00000       0.00000    
      1644 IM1H     83       IM1H     H2       HDA3A    0.135000       1.00800           0   0.00000       0.00000    
      1645 IM1H     83       IM1H     H3       HDA3A    0.135000       1.00800           0   0.00000       0.00000    
      1646 IM1H     83       IM1H     N1       ND2R5C    1.71300       13.6070           0 -0.803000       1.00000    
      1647 IM1H     83       IM1H     DN1      DRUD     -1.55500      0.400000           0   0.00000       0.00000    
      1648 IM1H     83       IM1H     C2       CD2R5D    1.69890       11.6110           0  -1.08300       1.10000    
      1649 IM1H     83       IM1H     DC2      DRUD     -1.80590      0.400000           0   0.00000       0.00000    
      1650 IM1H     83       IM1H     H4       HDR5D    0.195000       1.00800           0   0.00000       0.00000    
      1651 IM1H     83       IM1H     C3       CD2R5D    1.75890       11.6110           0  -1.08300       1.10000    
      1652 IM1H     83       IM1H     DC3      DRUD     -1.80590      0.400000           0   0.00000       0.00000    
      1653 IM1H     83       IM1H     H5       HDR5D    0.192000       1.00800           0   0.00000       0.00000    
      1654 IM1H     83       IM1H     C4       CD2R5E    1.91950       11.6110           0  -1.25300       1.20000    
      1655 IM1H     83       IM1H     DC4      DRUD     -1.94250      0.400000           0   0.00000       0.00000    
      1656 IM1H     83       IM1H     H6       HDR5E    0.203000       1.00800           0   0.00000       0.00000    
      1657 IM1H     83       IM1H     N2       ND2R5C    1.39800       13.6070           0 -0.803000       1.00000    
      1658 IM1H     83       IM1H     DN2      DRUD     -1.55500      0.400000           0   0.00000       0.00000    
      1659 IM1H     83       IM1H     H7       HDP1A    0.363000       1.00800           0   0.00000       0.00000    
      1660 IM1H     83       IM1H     LPN21    LPD       0.00000       0.00000          -1   0.00000       0.00000    
      1661 IM1H     84       IM1H     C1       CD33F     1.70390       11.6110           0  -1.18100       1.10000    
      1662 IM1H     84       IM1H     DC1      DRUD     -1.88590      0.400000           0   0.00000       0.00000    
      1663 IM1H     84       IM1H     H1       HDA3A    0.135000       1.00800           0   0.00000       0.00000    
      1664 IM1H     84       IM1H     H2       HDA3A    0.135000       1.00800           0   0.00000       0.00000    
      1665 IM1H     84       IM1H     H3       HDA3A    0.135000       1.00800           0   0.00000       0.00000    
      1666 IM1H     84       IM1H     N1       ND2R5C    1.71300       13.6070           0 -0.803000       1.00000    
      1667 IM1H     84       IM1H     DN1      DRUD     -1.55500      0.400000           0   0.00000       0.00000    
      1668 IM1H     84       IM1H     C2       CD2R5D    1.69890       11.6110           0  -1.08300       1.10000    
      1669 IM1H     84       IM1H     DC2      DRUD     -1.80590      0.400000           0   0.00000       0.00000    
      1670 IM1H     84       IM1H     H4       HDR5D    0.195000       1.00800           0   0.00000       0.00000    
      1671 IM1H     84       IM1H     C3       CD2R5D    1.75890       11.6110           0  -1.08300       1.10000    
      1672 IM1H     84       IM1H     DC3      DRUD     -1.80590      0.400000           0   0.00000       0.00000    
      1673 IM1H     84       IM1H     H5       HDR5D    0.192000       1.00800           0   0.00000       0.00000    
      1674 IM1H     84       IM1H     C4       CD2R5E    1.91950       11.6110           0  -1.25300       1.20000    
      1675 IM1H     84       IM1H     DC4      DRUD     -1.94250      0.400000           0   0.00000       0.00000    
      1676 IM1H     84       IM1H     H6       HDR5E    0.203000       1.00800           0   0.00000       0.00000    
      1677 IM1H     84       IM1H     N2       ND2R5C    1.39800       13.6070           0 -0.803000       1.00000    
      1678 IM1H     84       IM1H     DN2      DRUD     -1.55500      0.400000           0   0.00000       0.00000    
      1679 IM1H     84       IM1H     H7       HDP1A    0.363000       1.00800           0   0.00000       0.00000    
      1680 IM1H     84       IM1H     LPN21    LPD       0.00000       0.00000          -1   0.00000       0.00000    
      1681 IM1H     85       IM1H     C1       CD33F     1.70390       11.6110           0  -1.18100       1.10000    
      1682 IM1H     85       IM1H     DC1      DRUD     -1.88590      0.400000           0   0.00000       0.00000    
      1683 IM1H     85       IM1H     H1       HDA3A    0.135000       1.00800           0   0.00000       0.00000    
      1684 IM1H     85       IM1H     H2       HDA3A    0.135000       1.00800           0   0.00000       0.00000    
      1685 IM1H     85       IM1H     H3       HDA3A    0.135000       1.00800           0   0.00000       0.00000    
      1686 IM1H     85       IM1H     N1       ND2R5C    1.71300       13.6070           0 -0.803000       1.00000    
      1687 IM1H     85       IM1H     DN1      DRUD     -1.55500      0.400000           0   0.00000       0.00000    
      1688 IM1H     85       IM1H     C2       CD2R5D    1.69890       11.6110           0  -1.08300       1.10000    
      1689 IM1H     85       IM1H     DC2      DRUD     -1.80590      0.400000           0   0.00000       0.00000    
      1690 IM1H     85       IM1H     H4       HDR5D    0.195000       1.00800           0   0.00000       0.00000    
      1691 IM1H     85       IM1H     C3       CD2R5D    1.75890       11.6110           0  -1.08300       1.10000    
      1692 IM1H     85       IM1H     DC3      DRUD     -1.80590      0.400000           0   0.00000       0.00000    
      1693 IM1H     85       IM1H     H5       HDR5D    0.192000       1.00800           0   0.00000       0.00000    
      1694 IM1H     85       IM1H     C4       CD2R5E    1.91950       11.6110           0  -1.25300       1.20000    
      1695 IM1H     85       IM1H     DC4      DRUD     -1.94250      0.400000           0   0.00000       0.00000    
      1696 IM1H     85       IM1H     H6       HDR5E    0.203000       1.00800           0   0.00000       0.00000    
      1697 IM1H     85       IM1H     N2       ND2R5C    1.39800       13.6070           0 -0.803000       1.00000    
      1698 IM1H     85       IM1H     DN2      DRUD     -1.55500      0.400000           0   0.00000       0.00000    
      1699 IM1H     85       IM1H     H7       HDP1A    0.363000       1.00800           0   0.00000       0.00000    
      1700 IM1H     85       IM1H     LPN21    LPD       0.00000       0.00000          -1   0.00000       0.00000    
      1701 IM1H     86       IM1H     C1       CD33F     1.70390       11.6110           0  -1.18100       1.10000    
      1702 IM1H     86       IM1H     DC1      DRUD     -1.88590      0.400000           0   0.00000       0.00000    
      1703 IM1H     86       IM1H     H1       HDA3A    0.135000       1.00800           0   0.00000       0.00000    
      1704 IM1H     86       IM1H     H2       HDA3A    0.135000       1.00800           0   0.00000       0.00000    
      1705 IM1H     86       IM1H     H3       HDA3A    0.135000       1.00800           0   0.00000       0.00000    
      1706 IM1H     86       IM1H     N1       ND2R5C    1.71300       13.6070           0 -0.803000       1.00000    
      1707 IM1H     86       IM1H     DN1      DRUD     -1.55500      0.400000           0   0.00000       0.00000    
      1708 IM1H     86       IM1H     C2       CD2R5D    1.69890       11.6110           0  -1.08300       1.10000    
      1709 IM1H     86       IM1H     DC2      DRUD     -1.80590      0.400000           0   0.00000       0.00000    
      1710 IM1H     86       IM1H     H4       HDR5D    0.195000       1.00800           0   0.00000       0.00000    
      1711 IM1H     86       IM1H     C3       CD2R5D    1.75890       11.6110           0  -1.08300       1.10000    
      1712 IM1H     86       IM1H     DC3      DRUD     -1.80590      0.400000           0   0.00000       0.00000    
      1713 IM1H     86       IM1H     H5       HDR5D    0.192000       1.00800           0   0.00000       0.00000    
      1714 IM1H     86       IM1H     C4       CD2R5E    1.91950       11.6110           0  -1.25300       1.20000    
      1715 IM1H     86       IM1H     DC4      DRUD     -1.94250      0.400000           0   0.00000       0.00000    
      1716 IM1H     86       IM1H     H6       HDR5E    0.203000       1.00800           0   0.00000       0.00000    
      1717 IM1H     86       IM1H     N2       ND2R5C    1.39800       13.6070           0 -0.803000       1.00000    
      1718 IM1H     86       IM1H     DN2      DRUD     -1.55500      0.400000           0   0.00000       0.00000    
      1719 IM1H     86       IM1H     H7       HDP1A    0.363000       1.00800           0   0.00000       0.00000    
      1720 IM1H     86       IM1H     LPN21    LPD       0.00000       0.00000          -1   0.00000       0.00000    
      1721 IM1H     87       IM1H     C1       CD33F     1.70390       11.6110           0  -1.18100       1.10000    
      1722 IM1H     87       IM1H     DC1      DRUD     -1.88590      0.400000           0   0.00000       0.00000    
      1723 IM1H     87       IM1H     H1       HDA3A    0.135000       1.00800           0   0.00000       0.00000    
      1724 IM1H     87       IM1H     H2       HDA3A    0.135000       1.00800           0   0.00000       0.00000    
      1725 IM1H     87       IM1H     H3       HDA3A    0.135000       1.00800           0   0.00000       0.00000    
      1726 IM1H     87       IM1H     N1       ND2R5C    1.71300       13.6070           0 -0.803000       1.00000    
      1727 IM1H     87       IM1H     DN1      DRUD     -1.55500      0.400000           0   0.00000       0.00000    
      1728 IM1H     87       IM1H     C2       CD2R5D    1.69890       11.6110           0  -1.08300       1.10000    
      1729 IM1H     87       IM1H     DC2      DRUD     -1.80590      0.400000           0   0.00000       0.00000    
      1730 IM1H     87       IM1H     H4       HDR5D    0.195000       1.00800           0   0.00000       0.00000    
      1731 IM1H     87       IM1H     C3       CD2R5D    1.75890       11.6110           0  -1.08300       1.10000    
      1732 IM1H     87       IM1H     DC3      DRUD     -1.80590      0.400000           0   0.00000       0.00000    
      1733 IM1H     87       IM1H     H5       HDR5D    0.192000       1.00800           0   0.00000       0.00000    
      1734 IM1H     87       IM1H     C4       CD2R5E    1.91950       11.6110           0  -1.25300       1.20000    
      1735 IM1H     87       IM1H     DC4      DRUD     -1.94250      0.400000           0   0.00000       0.00000    
      1736 IM1H     87       IM1H     H6       HDR5E    0.203000       1.00800           0   0.00000       0.00000    
      1737 IM1H     87       IM1H     N2       ND2R5C    1.39800       13.6070           0 -0.803000       1.00000    
      1738 IM1H     87       IM1H     DN2      DRUD     -1.55500      0.400000           0   0.00000       0.00000    
      1739 IM1H     87       IM1H     H7       HDP1A    0.363000       1.00800           0   0.00000       0.00000    
      1740 IM1H     87       IM1H     LPN21    LPD       0.00000       0.00000          -1   0.00000       0.00000    
      1741 IM1H     88       IM1H     C1       CD33F     1.70390       11.6110           0  -1.18100       1.10000    
      1742 IM1H     88       IM1H     DC1      DRUD     -1.88590      0.400000           0   0.00000       0.00000    
      1743 IM1H     88       IM1H     H1       HDA3A    0.135000       1.00800           0   0.00000       0.00000    
      1744 IM1H     88       IM1H     H2       HDA3A    0.135000       1.00800           0   0.00000       0.00000    
      1745 IM1H     88       IM1H     H3       HDA3A    0.135000       1.00800           0   0.00000       0.00000    
      1746 IM1H     88       IM1H     N1       ND2R5C    1.71300       13.6070           0 -0.803000       1.00000    
      1747 IM1H     88       IM1H     DN1      DRUD     -1.55500      0.400000           0   0.00000       0.00000    
      1748 IM1H     88       IM1H     C2       CD2R5D    1.69890       11.6110           0  -1.08300       1.10000    
      1749 IM1H     88       IM1H     DC2      DRUD     -1.80590      0.400000           0   0.00000       0.00000    
      1750 IM1H     88       IM1H     H4       HDR5D    0.195000       1.00800           0   0.00000       0.00000    
      1751 IM1H     88       IM1H     C3       CD2R5D    1.75890       11.6110           0  -1.08300       1.10000    
      1752 IM1H     88       IM1H     DC3      DRUD     -1.80590      0.400000           0   0.00000       0.00000    
      1753 IM1H     88       IM1H     H5       HDR5D    0.192000       1.00800           0   0.00000       0.00000    
      1754 IM1H     88       IM1H     C4       CD2R5E    1.91950       11.6110           0  -1.25300       1.20000    
      1755 IM1H     88       IM1H     DC4      DRUD     -1.94250      0.400000           0   0.00000       0.00000    
      1756 IM1H     88       IM1H     H6       HDR5E    0.203000       1.00800           0   0.00000       0.00000    
      1757 IM1H     88       IM1H     N2       ND2R5C    1.39800       13.6070           0 -0.803000       1.00000    
      1758 IM1H     88       IM1H     DN2      DRUD     -1.55500      0.400000           0   0.00000       0.00000    
      1759 IM1H     88       IM1H     H7       HDP1A    0.363000       1.00800           0   0.00000       0.00000    
      1760 IM1H     88       IM1H     LPN21    LPD       0.00000       0.00000          -1   0.00000       0.00000    
      1761 IM1H     89       IM1H     C1       CD33F     1.70390       11.6110           0  -1.18100       1.10000    
      1762 IM1H     89       IM1H     DC1      DRUD     -1.88590      0.400000           0   0.00000       0.00000    
      1763 IM1H     89       IM1H     H1       HDA3A    0.135000       1.00800           0   0.00000       0.00000    
      1764 IM1H     89       IM1H     H2       HDA3A    0.135000       1.00800           0   0.00000       0.00000    
      1765 IM1H     89       IM1H     H3       HDA3A    0.135000       1.00800           0   0.00000       0.00000    
      1766 IM1H     89       IM1H     N1       ND2R5C    1.71300       13.6070           0 -0.803000       1.00000    
      1767 IM1H     89       IM1H     DN1      DRUD     -1.55500      0.400000           0   0.00000       0.00000    
      1768 IM1H     89       IM1H     C2       CD2R5D    1.69890       11.6110           0  -1.08300       1.10000    
      1769 IM1H     89       IM1H     DC2      DRUD     -1.80590      0.400000           0   0.00000       0.00000    
      1770 IM1H     89       IM1H     H4       HDR5D    0.195000       1.00800           0   0.00000       0.00000    
      1771 IM1H     89       IM1H     C3       CD2R5D    1.75890       11.6110           0  -1.08300       1.10000    
      1772 IM1H     89       IM1H     DC3      DRUD     -1.80590      0.400000           0   0.00000       0.00000    
      1773 IM1H     89       IM1H     H5       HDR5D    0.192000       1.00800           0   0.00000       0.00000    
      1774 IM1H     89       IM1H     C4       CD2R5E    1.91950       11.6110           0  -1.25300       1.20000    
      1775 IM1H     89       IM1H     DC4      DRUD     -1.94250      0.400000           0   0.00000       0.00000    
      1776 IM1H     89       IM1H     H6       HDR5E    0.203000       1.00800           0   0.00000       0.00000    
      1777 IM1H     89       IM1H     N2       ND2R5C    1.39800       13.6070           0 -0.803000       1.00000    
      1778 IM1H     89       IM1H     DN2      DRUD     -1.55500      0.400000           0   0.00000       0.00000    
      1779 IM1H     89       IM1H     H7       HDP1A    0.363000       1.00800           0   0.00000       0.00000    
      1780 IM1H     89       IM1H     LPN21    LPD       0.00000       0.00000          -1   0.00000       0.00000    
      1781 IM1H     90       IM1H     C1       CD33F     1.70390       11.6110           0  -1.18100       1.10000    
      1782 IM1H     90       IM1H     DC1      DRUD     -1.88590      0.400000           0   0.00000       0.00000    
      1783 IM1H     90       IM1H     H1       HDA3A    0.135000       1.00800           0   0.00000       0.00000    
      1784 IM1H     90       IM1H     H2       HDA3A    0.135000       1.00800           0   0.00000       0.00000    
      1785 IM1H     90       IM1H     H3       HDA3A    0.135000       1.00800           0   0.00000       0.00000    
      1786 IM1H     90       IM1H     N1       ND2R5C    1.71300       13.6070           0 -0.803000       1.00000    
      1787 IM1H     90       IM1H     DN1      DRUD     -1.55500      0.400000           0   0.00000       0.00000    
      1788 IM1H     90       IM1H     C2       CD2R5D    1.69890       11.6110           0  -1.08300       1.10000    
      1789 IM1H     90       IM1H     DC2      DRUD     -1.80590      0.400000           0   0.00000       0.00000    
      1790 IM1H     90       IM1H     H4       HDR5D    0.195000       1.00800           0   0.00000       0.00000    
      1791 IM1H     90       IM1H     C3       CD2R5D    1.75890       11.6110           0  -1.08300       1.10000    
      1792 IM1H     90       IM1H     DC3      DRUD     -1.80590      0.400000           0   0.00000       0.00000    
      1793 IM1H     90       IM1H     H5       HDR5D    0.192000       1.00800           0   0.00000       0.00000    
      1794 IM1H     90       IM1H     C4       CD2R5E    1.91950       11.6110           0  -1.25300       1.20000    
      1795 IM1H     90       IM1H     DC4      DRUD     -1.94250      0.400000           0   0.00000       0.00000    
      1796 IM1H     90       IM1H     H6       HDR5E    0.203000       1.00800           0   0.00000       0.00000    
      1797 IM1H     90       IM1H     N2       ND2R5C    1.39800       13.6070           0 -0.803000       1.00000    
      1798 IM1H     90       IM1H     DN2      DRUD     -1.55500      0.400000           0   0.00000       0.00000    
      1799 IM1H     90       IM1H     H7       HDP1A    0.363000       1.00800           0   0.00000       0.00000    
      1800 IM1H     90       IM1H     LPN21    LPD       0.00000       0.00000          -1   0.00000       0.00000    
      1801 IM1H     91       IM1H     C1       CD33F     1.70390       11.6110           0  -1.18100       1.10000    
      1802 IM1H     91       IM1H     DC1      DRUD     -1.88590      0.400000           0   0.00000       0.00000    
      1803 IM1H     91       IM1H     H1       HDA3A    0.135000       1.00800           0   0.00000       0.00000    
      1804 IM1H     91       IM1H     H2       HDA3A    0.135000       1.00800           0   0.00000       0.00000    
      1805 IM1H     91       IM1H     H3       HDA3A    0.135000       1.00800           0   0.00000       0.00000    
      1806 IM1H     91       IM1H     N1       ND2R5C    1.71300       13.6070           0 -0.803000       1.00000    
      1807 IM1H     91       IM1H     DN1      DRUD     -1.55500      0.400000           0   0.00000       0.00000    
      1808 IM1H     91       IM1H     C2       CD2R5D    1.69890       11.6110           0  -1.08300       1.10000    
      1809 IM1H     91       IM1H     DC2      DRUD     -1.80590      0.400000           0   0.00000       0.00000    
      1810 IM1H     91       IM1H     H4       HDR5D    0.195000       1.00800           0   0.00000       0.00000    
      1811 IM1H     91       IM1H     C3       CD2R5D    1.75890       11.6110           0  -1.08300       1.10000    
      1812 IM1H     91       IM1H     DC3      DRUD     -1.80590      0.400000           0   0.00000       0.00000    
      1813 IM1H     91       IM1H     H5       HDR5D    0.192000       1.00800           0   0.00000       0.00000    
      1814 IM1H     91       IM1H     C4       CD2R5E    1.91950       11.6110           0  -1.25300       1.20000    
      1815 IM1H     91       IM1H     DC4      DRUD     -1.94250      0.400000           0   0.00000       0.00000    
      1816 IM1H     91       IM1H     H6       HDR5E    0.203000       1.00800           0   0.00000       0.00000    
      1817 IM1H     91       IM1H     N2       ND2R5C    1.39800       13.6070           0 -0.803000       1.00000    
      1818 IM1H     91       IM1H     DN2      DRUD     -1.55500      0.400000           0   0.00000       0.00000    
      1819 IM1H     91       IM1H     H7       HDP1A    0.363000       1.00800           0   0.00000       0.00000    
      1820 IM1H     91       IM1H     LPN21    LPD       0.00000       0.00000          -1   0.00000       0.00000    
      1821 IM1H     92       IM1H     C1       CD33F     1.70390       11.6110           0  -1.18100       1.10000    
      1822 IM1H     92       IM1H     DC1      DRUD     -1.88590      0.400000           0   0.00000       0.00000    
      1823 IM1H     92       IM1H     H1       HDA3A    0.135000       1.00800           0   0.00000       0.00000    
      1824 IM1H     92       IM1H     H2       HDA3A    0.135000       1.00800           0   0.00000       0.00000    
      1825 IM1H     92       IM1H     H3       HDA3A    0.135000       1.00800           0   0.00000       0.00000    
      1826 IM1H     92       IM1H     N1       ND2R5C    1.71300       13.6070           0 -0.803000       1.00000    
      1827 IM1H     92       IM1H     DN1      DRUD     -1.55500      0.400000           0   0.00000       0.00000    
      1828 IM1H     92       IM1H     C2       CD2R5D    1.69890       11.6110           0  -1.08300       1.10000    
      1829 IM1H     92       IM1H     DC2      DRUD     -1.80590      0.400000           0   0.00000       0.00000    
      1830 IM1H     92       IM1H     H4       HDR5D    0.195000       1.00800           0   0.00000       0.00000    
      1831 IM1H     92       IM1H     C3       CD2R5D    1.75890       11.6110           0  -1.08300       1.10000    
      1832 IM1H     92       IM1H     DC3      DRUD     -1.80590      0.400000           0   0.00000       0.00000    
      1833 IM1H     92       IM1H     H5       HDR5D    0.192000       1.00800           0   0.00000       0.00000    
      1834 IM1H     92       IM1H     C4       CD2R5E    1.91950       11.6110           0  -1.25300       1.20000    
      1835 IM1H     92       IM1H     DC4      DRUD     -1.94250      0.400000           0   0.00000       0.00000    
      1836 IM1H     92       IM1H     H6       HDR5E    0.203000       1.00800           0   0.00000       0.00000    
      1837 IM1H     92       IM1H     N2       ND2R5C    1.39800       13.6070           0 -0.803000       1.00000    
      1838 IM1H     92       IM1H     DN2      DRUD     -1.55500      0.400000           0   0.00000       0.00000    
      1839 IM1H     92       IM1H     H7       HDP1A    0.363000       1.00800           0   0.00000       0.00000    
      1840 IM1H     92       IM1H     LPN21    LPD       0.00000       0.00000          -1   0.00000       0.00000    
      1841 IM1H     93       IM1H     C1       CD33F     1.70390       11.6110           0  -1.18100       1.10000    
      1842 IM1H     93       IM1H     DC1      DRUD     -1.88590      0.400000           0   0.00000       0.00000    
      1843 IM1H     93       IM1H     H1       HDA3A    0.135000       1.00800           0   0.00000       0.00000    
      1844 IM1H     93       IM1H     H2       HDA3A    0.135000       1.00800           0   0.00000       0.00000    
      1845 IM1H     93       IM1H     H3       HDA3A    0.135000       1.00800           0   0.00000       0.00000    
      1846 IM1H     93       IM1H     N1       ND2R5C    1.71300       13.6070           0 -0.803000       1.00000    
      1847 IM1H     93       IM1H     DN1      DRUD     -1.55500      0.400000           0   0.00000       0.00000    
      1848 IM1H     93       IM1H     C2       CD2R5D    1.69890       11.6110           0  -1.08300       1.10000    
      1849 IM1H     93       IM1H     DC2      DRUD     -1.80590      0.400000           0   0.00000       0.00000    
      1850 IM1H     93       IM1H     H4       HDR5D    0.195000       1.00800           0   0.00000       0.00000    
      1851 IM1H     93       IM1H     C3       CD2R5D    1.75890       11.6110           0  -1.08300       1.10000    
      1852 IM1H     93       IM1H     DC3      DRUD     -1.80590      0.400000           0   0.00000       0.00000    
      1853 IM1H     93       IM1H     H5       HDR5D    0.192000       1.00800           0   0.00000       0.00000    
      1854 IM1H     93       IM1H     C4       CD2R5E    1.91950       11.6110           0  -1.25300       1.20000    
      1855 IM1H     93       IM1H     DC4      DRUD     -1.94250      0.400000           0   0.00000       0.00000    
      1856 IM1H     93       IM1H     H6       HDR5E    0.203000       1.00800           0   0.00000       0.00000    
      1857 IM1H     93       IM1H     N2       ND2R5C    1.39800       13.6070           0 -0.803000       1.00000    
      1858 IM1H     93       IM1H     DN2      DRUD     -1.55500      0.400000           0   0.00000       0.00000    
      1859 IM1H     93       IM1H     H7       HDP1A    0.363000       1.00800           0   0.00000       0.00000    
      1860 IM1H     93       IM1H     LPN21    LPD       0.00000       0.00000          -1   0.00000       0.00000    
      1861 IM1H     94       IM1H     C1       CD33F     1.70390       11.6110           0  -1.18100       1.10000    
      1862 IM1H     94       IM1H     DC1      DRUD     -1.88590      0.400000           0   0.00000       0.00000    
      1863 IM1H     94       IM1H     H1       HDA3A    0.135000       1.00800           0   0.00000       0.00000    
      1864 IM1H     94       IM1H     H2       HDA3A    0.135000       1.00800           0   0.00000       0.00000    
      1865 IM1H     94       IM1H     H3       HDA3A    0.135000       1.00800           0   0.00000       0.00000    
      1866 IM1H     94       IM1H     N1       ND2R5C    1.71300       13.6070           0 -0.803000       1.00000    
      1867 IM1H     94       IM1H     DN1      DRUD     -1.55500      0.400000           0   0.00000       0.00000    
      1868 IM1H     94       IM1H     C2       CD2R5D    1.69890       11.6110           0  -1.08300       1.10000    
      1869 IM1H     94       IM1H     DC2      DRUD     -1.80590      0.400000           0   0.00000       0.00000    
      1870 IM1H     94       IM1H     H4       HDR5D    0.195000       1.00800           0   0.00000       0.00000    
      1871 IM1H     94       IM1H     C3       CD2R5D    1.75890       11.6110           0  -1.08300       1.10000    
      1872 IM1H     94       IM1H     DC3      DRUD     -1.80590      0.400000           0   0.00000       0.00000    
      1873 IM1H     94       IM1H     H5       HDR5D    0.192000       1.00800           0   0.00000       0.00000    
      1874 IM1H     94       IM1H     C4       CD2R5E    1.91950       11.6110           0  -1.25300       1.20000    
      1875 IM1H     94       IM1H     DC4      DRUD     -1.94250      0.400000           0   0.00000       0.00000    
      1876 IM1H     94       IM1H     H6       HDR5E    0.203000       1.00800           0   0.00000       0.00000    
      1877 IM1H     94       IM1H     N2       ND2R5C    1.39800       13.6070           0 -0.803000       1.00000    
      1878 IM1H     94       IM1H     DN2      DRUD     -1.55500      0.400000           0   0.00000       0.00000    
      1879 IM1H     94       IM1H     H7       HDP1A    0.363000       1.00800           0   0.00000       0.00000    
      1880 IM1H     94       IM1H     LPN21    LPD       0.00000       0.00000          -1   0.00000       0.00000    
      1881 IM1H     95       IM1H     C1       CD33F     1.70390       11.6110           0  -1.18100       1.10000    
      1882 IM1H     95       IM1H     DC1      DRUD     -1.88590      0.400000           0   0.00000       0.00000    
      1883 IM1H     95       IM1H     H1       HDA3A    0.135000       1.00800           0   0.00000       0.00000    
      1884 IM1H     95       IM1H     H2       HDA3A    0.135000       1.00800           0   0.00000       0.00000    
      1885 IM1H     95       IM1H     H3       HDA3A    0.135000       1.00800           0   0.00000       0.00000    
      1886 IM1H     95       IM1H     N1       ND2R5C    1.71300       13.6070           0 -0.803000       1.00000    
      1887 IM1H     95       IM1H     DN1      DRUD     -1.55500      0.400000           0   0.00000       0.00000    
      1888 IM1H     95       IM1H     C2       CD2R5D    1.69890       11.6110           0  -1.08300       1.10000    
      1889 IM1H     95       IM1H     DC2      DRUD     -1.80590      0.400000           0   0.00000       0.00000    
      1890 IM1H     95       IM1H     H4       HDR5D    0.195000       1.00800           0   0.00000       0.00000    
      1891 IM1H     95       IM1H     C3       CD2R5D    1.75890       11.6110           0  -1.08300       1.10000    
      1892 IM1H     95       IM1H     DC3      DRUD     -1.80590      0.400000           0   0.00000       0.00000    
      1893 IM1H     95       IM1H     H5       HDR5D    0.192000       1.00800           0   0.00000       0.00000    
      1894 IM1H     95       IM1H     C4       CD2R5E    1.91950       11.6110           0  -1.25300       1.20000    
      1895 IM1H     95       IM1H     DC4      DRUD     -1.94250      0.400000           0   0.00000       0.00000    
      1896 IM1H     95       IM1H     H6       HDR5E    0.203000       1.00800           0   0.00000       0.00000    
      1897 IM1H     95       IM1H     N2       ND2R5C    1.39800       13.6070           0 -0.803000       1.00000    
      1898 IM1H     95       IM1H     DN2      DRUD     -1.55500      0.400000           0   0.00000       0.00000    
      1899 IM1H     95       IM1H     H7       HDP1A    0.363000       1.00800           0   0.00000       0.00000    
      1900 IM1H     95       IM1H     LPN21    LPD       0.00000       0.00000          -1   0.00000       0.00000    
      1901 IM1H     96       IM1H     C1       CD33F     1.70390       11.6110           0  -1.18100       1.10000    
      1902 IM1H     96       IM1H     DC1      DRUD     -1.88590      0.400000           0   0.00000       0.00000    
      1903 IM1H     96       IM1H     H1       HDA3A    0.135000       1.00800           0   0.00000       0.00000    
      1904 IM1H     96       IM1H     H2       HDA3A    0.135000       1.00800           0   0.00000       0.00000    
      1905 IM1H     96       IM1H     H3       HDA3A    0.135000       1.00800           0   0.00000       0.00000    
      1906 IM1H     96       IM1H     N1       ND2R5C    1.71300       13.6070           0 -0.803000       1.00000    
      1907 IM1H     96       IM1H     DN1      DRUD     -1.55500      0.400000           0   0.00000       0.00000    
      1908 IM1H     96       IM1H     C2       CD2R5D    1.69890       11.6110           0  -1.08300       1.10000    
      1909 IM1H     96       IM1H     DC2      DRUD     -1.80590      0.400000           0   0.00000       0.00000    
      1910 IM1H     96       IM1H     H4       HDR5D    0.195000       1.00800           0   0.00000       0.00000    
      1911 IM1H     96       IM1H     C3       CD2R5D    1.75890       11.6110           0  -1.08300       1.10000    
      1912 IM1H     96       IM1H     DC3      DRUD     -1.80590      0.400000           0   0.00000       0.00000    
      1913 IM1H     96       IM1H     H5       HDR5D    0.192000       1.00800           0   0.00000       0.00000    
      1914 IM1H     96       IM1H     C4       CD2R5E    1.91950       11.6110           0  -1.25300       1.20000    
      1915 IM1H     96       IM1H     DC4      DRUD     -1.94250      0.400000           0   0.00000       0.00000    
      1916 IM1H     96       IM1H     H6       HDR5E    0.203000       1.00800           0   0.00000       0.00000    
      1917 IM1H     96       IM1H     N2       ND2R5C    1.39800       13.6070           0 -0.803000       1.00000    
      1918 IM1H     96       IM1H     DN2      DRUD     -1.55500      0.400000           0   0.00000       0.00000    
      1919 IM1H     96       IM1H     H7       HDP1A    0.363000       1.00800           0   0.00000       0.00000    
      1920 IM1H     96       IM1H     LPN21    LPD       0.00000       0.00000          -1   0.00000       0.00000    
      1921 IM1H     97       IM1H     C1       CD33F     1.70390       11.6110           0  -1.18100       1.10000    
      1922 IM1H     97       IM1H     DC1      DRUD     -1.88590      0.400000           0   0.00000       0.00000    
      1923 IM1H     97       IM1H     H1       HDA3A    0.135000       1.00800           0   0.00000       0.00000    
      1924 IM1H     97       IM1H     H2       HDA3A    0.135000       1.00800           0   0.00000       0.00000    
      1925 IM1H     97       IM1H     H3       HDA3A    0.135000       1.00800           0   0.00000       0.00000    
      1926 IM1H     97       IM1H     N1       ND2R5C    1.71300       13.6070           0 -0.803000       1.00000    
      1927 IM1H     97       IM1H     DN1      DRUD     -1.55500      0.400000           0   0.00000       0.00000    
      1928 IM1H     97       IM1H     C2       CD2R5D    1.69890       11.6110           0  -1.08300       1.10000    
      1929 IM1H     97       IM1H     DC2      DRUD     -1.80590      0.400000           0   0.00000       0.00000    
      1930 IM1H     97       IM1H     H4       HDR5D    0.195000       1.00800           0   0.00000       0.00000    
      1931 IM1H     97       IM1H     C3       CD2R5D    1.75890       11.6110           0  -1.08300       1.10000    
      1932 IM1H     97       IM1H     DC3      DRUD     -1.80590      0.400000           0   0.00000       0.00000    
      1933 IM1H     97       IM1H     H5       HDR5D    0.192000       1.00800           0   0.00000       0.00000    
      1934 IM1H     97       IM1H     C4       CD2R5E    1.91950       11.6110           0  -1.25300       1.20000    
      1935 IM1H     97       IM1H     DC4      DRUD     -1.94250      0.400000           0   0.00000       0.00000    
      1936 IM1H     97       IM1H     H6       HDR5E    0.203000       1.00800           0   0.00000       0.00000    
      1937 IM1H     97       IM1H     N2       ND2R5C    1.39800       13.6070           0 -0.803000       1.00000    
      1938 IM1H     97       IM1H     DN2      DRUD     -1.55500      0.400000           0   0.00000       0.00000    
      1939 IM1H     97       IM1H     H7       HDP1A    0.363000       1.00800           0   0.00000       0.00000    
      1940 IM1H     97       IM1H     LPN21    LPD       0.00000       0.00000          -1   0.00000       0.00000    
      1941 IM1H     98       IM1H     C1       CD33F     1.70390       11.6110           0  -1.18100       1.10000    
      1942 IM1H     98       IM1H     DC1      DRUD     -1.88590      0.400000           0   0.00000       0.00000    
      1943 IM1H     98       IM1H     H1       HDA3A    0.135000       1.00800           0   0.00000       0.00000    
      1944 IM1H     98       IM1H     H2       HDA3A    0.135000       1.00800           0   0.00000       0.00000    
      1945 IM1H     98       IM1H     H3       HDA3A    0.135000       1.00800           0   0.00000       0.00000    
      1946 IM1H     98       IM1H     N1       ND2R5C    1.71300       13.6070           0 -0.803000       1.00000    
      1947 IM1H     98       IM1H     DN1      DRUD     -1.55500      0.400000           0   0.00000       0.00000    
      1948 IM1H     98       IM1H     C2       CD2R5D    1.69890       11.6110           0  -1.08300       1.10000    
      1949 IM1H     98       IM1H     DC2      DRUD     -1.80590      0.400000           0   0.00000       0.00000    
      1950 IM1H     98       IM1H     H4       HDR5D    0.195000       1.00800           0   0.00000       0.00000    
      1951 IM1H     98       IM1H     C3       CD2R5D    1.75890       11.6110           0  -1.08300       1.10000    
      1952 IM1H     98       IM1H     DC3      DRUD     -1.80590      0.400000           0   0.00000       0.00000    
      1953 IM1H     98       IM1H     H5       HDR5D    0.192000       1.00800           0   0.00000       0.00000    
      1954 IM1H     98       IM1H     C4       CD2R5E    1.91950       11.6110           0  -1.25300       1.20000    
      1955 IM1H     98       IM1H     DC4      DRUD     -1.94250      0.400000           0   0.00000       0.00000    
      1956 IM1H     98       IM1H     H6       HDR5E    0.203000       1.00800           0   0.00000       0.00000    
      1957 IM1H     98       IM1H     N2       ND2R5C    1.39800       13.6070           0 -0.803000       1.00000    
      1958 IM1H     98       IM1H     DN2      DRUD     -1.55500      0.400000           0   0.00000       0.00000    
      1959 IM1H     98       IM1H     H7       HDP1A    0.363000       1.00800           0   0.00000       0.00000    
      1960 IM1H     98       IM1H     LPN21    LPD       0.00000       0.00000          -1   0.00000       0.00000    
      1961 IM1H     99       IM1H     C1       CD33F     1.70390       11.6110           0  -1.18100       1.10000    
      1962 IM1H     99       IM1H     DC1      DRUD     -1.88590      0.400000           0   0.00000       0.00000    
      1963 IM1H     99       IM1H     H1       HDA3A    0.135000       1.00800           0   0.00000       0.00000    
      1964 IM1H     99       IM1H     H2       HDA3A    0.135000       1.00800           0   0.00000       0.00000    
      1965 IM1H     99       IM1H     H3       HDA3A    0.135000       1.00800           0   0.00000       0.00000    
      1966 IM1H     99       IM1H     N1       ND2R5C    1.71300       13.6070           0 -0.803000       1.00000    
      1967 IM1H     99       IM1H     DN1      DRUD     -1.55500      0.400000           0   0.00000       0.00000    
      1968 IM1H     99       IM1H     C2       CD2R5D    1.69890       11.6110           0  -1.08300       1.10000    
      1969 IM1H     99       IM1H     DC2      DRUD     -1.80590      0.400000           0   0.00000       0.00000    
      1970 IM1H     99       IM1H     H4       HDR5D    0.195000       1.00800           0   0.00000       0.00000    
      1971 IM1H     99       IM1H     C3       CD2R5D    1.75890       11.6110           0  -1.08300       1.10000    
      1972 IM1H     99       IM1H     DC3      DRUD     -1.80590      0.400000           0   0.00000       0.00000    
      1973 IM1H     99       IM1H     H5       HDR5D    0.192000       1.00800           0   0.00000       0.00000    
      1974 IM1H     99       IM1H     C4       CD2R5E    1.91950       11.6110           0  -1.25300       1.20000    
      1975 IM1H     99       IM1H     DC4      DRUD     -1.94250      0.400000           0   0.00000       0.00000    
      1976 IM1H     99       IM1H     H6       HDR5E    0.203000       1.00800           0   0.00000       0.00000    
      1977 IM1H     99       IM1H     N2       ND2R5C    1.39800       13.6070           0 -0.803000       1.00000    
      1978 IM1H     99       IM1H     DN2      DRUD     -1.55500      0.400000           0   0.00000       0.00000    
      1979 IM1H     99       IM1H     H7       HDP1A    0.363000       1.00800           0   0.00000       0.00000    
      1980 IM1H     99       IM1H     LPN21    LPD       0.00000       0.00000          -1   0.00000       0.00000    
      1981 IM1H     100      IM1H     C1       CD33F     1.70390       11.6110           0  -1.18100       1.10000    
      1982 IM1H     100      IM1H     DC1      DRUD     -1.88590      0.400000           0   0.00000       0.00000    
      1983 IM1H     100      IM1H     H1       HDA3A    0.135000       1.00800           0   0.00000       0.00000    
      1984 IM1H     100      IM1H     H2       HDA3A    0.135000       1.00800           0   0.00000       0.00000    
      1985 IM1H     100      IM1H     H3       HDA3A    0.135000       1.00800           0   0.00000       0.00000    
      1986 IM1H     100      IM1H     N1       ND2R5C    1.71300       13.6070           0 -0.803000       1.00000    
      1987 IM1H     100      IM1H     DN1      DRUD     -1.55500      0.400000           0   0.00000       0.00000    
      1988 IM1H     100      IM1H     C2       CD2R5D    1.69890       11.6110           0  -1.08300       1.10000    
      1989 IM1H     100      IM1H     DC2      DRUD     -1.80590      0.400000           0   0.00000       0.00000    
      1990 IM1H     100      IM1H     H4       HDR5D    0.195000       1.00800           0   0.00000       0.00000    
      1991 IM1H     100      IM1H     C3       CD2R5D    1.75890       11.6110           0  -1.08300       1.10000    
      1992 IM1H     100      IM1H     DC3      DRUD     -1.80590      0.400000           0   0.00000       0.00000    
      1993 IM1H     100      IM1H     H5       HDR5D    0.192000       1.00800           0   0.00000       0.00000    
      1994 IM1H     100      IM1H     C4       CD2R5E    1.91950       11.6110           0  -1.25300       1.20000    
      1995 IM1H     100      IM1H     DC4      DRUD     -1.94250      0.400000           0   0.00000       0.00000    
      1996 IM1H     100      IM1H     H6       HDR5E    0.203000       1.00800           0   0.00000       0.00000    
      1997 IM1H     100      IM1H     N2       ND2R5C    1.39800       13.6070           0 -0.803000       1.00000    
      1998 IM1H     100      IM1H     DN2      DRUD     -1.55500      0.400000           0   0.00000       0.00000    
      1999 IM1H     100      IM1H     H7       HDP1A    0.363000       1.00800           0   0.00000       0.00000    
      2000 IM1H     100      IM1H     LPN21    LPD       0.00000       0.00000          -1   0.00000       0.00000    
      2001 IM1H     101      IM1H     C1       CD33F     1.70390       11.6110           0  -1.18100       1.10000    
      2002 IM1H     101      IM1H     DC1      DRUD     -1.88590      0.400000           0   0.00000       0.00000    
      2003 IM1H     101      IM1H     H1       HDA3A    0.135000       1.00800           0   0.00000       0.00000    
      2004 IM1H     101      IM1H     H2       HDA3A    0.135000       1.00800           0   0.00000       0.00000    
      2005 IM1H     101      IM1H     H3       HDA3A    0.135000       1.00800           0   0.00000       0.00000    
      2006 IM1H     101      IM1H     N1       ND2R5C    1.71300       13.6070           0 -0.803000       1.00000    
      2007 IM1H     101      IM1H     DN1      DRUD     -1.55500      0.400000           0   0.00000       0.00000    
      2008 IM1H     101      IM1H     C2       CD2R5D    1.69890       11.6110           0  -1.08300       1.10000    
      2009 IM1H     101      IM1H     DC2      DRUD     -1.80590      0.400000           0   0.00000       0.00000    
      2010 IM1H     101      IM1H     H4       HDR5D    0.195000       1.00800           0   0.00000       0.00000    
      2011 IM1H     101      IM1H     C3       CD2R5D    1.75890       11.6110           0  -1.08300       1.10000    
      2012 IM1H     101      IM1H     DC3      DRUD     -1.80590      0.400000           0   0.00000       0.00000    
      2013 IM1H     101      IM1H     H5       HDR5D    0.192000       1.00800           0   0.00000       0.00000    
      2014 IM1H     101      IM1H     C4       CD2R5E    1.91950       11.6110           0  -1.25300       1.20000    
      2015 IM1H     101      IM1H     DC4      DRUD     -1.94250      0.400000           0   0.00000       0.00000    
      2016 IM1H     101      IM1H     H6       HDR5E    0.203000       1.00800           0   0.00000       0.00000    
      2017 IM1H     101      IM1H     N2       ND2R5C    1.39800       13.6070           0 -0.803000       1.00000    
      2018 IM1H     101      IM1H     DN2      DRUD     -1.55500      0.400000           0   0.00000       0.00000    
      2019 IM1H     101      IM1H     H7       HDP1A    0.363000       1.00800           0   0.00000       0.00000    
      2020 IM1H     101      IM1H     LPN21    LPD       0.00000       0.00000          -1   0.00000       0.00000    
      2021 IM1H     102      IM1H     C1       CD33F     1.70390       11.6110           0  -1.18100       1.10000    
      2022 IM1H     102      IM1H     DC1      DRUD     -1.88590      0.400000           0   0.00000       0.00000    
      2023 IM1H     102      IM1H     H1       HDA3A    0.135000       1.00800           0   0.00000       0.00000    
      2024 IM1H     102      IM1H     H2       HDA3A    0.135000       1.00800           0   0.00000       0.00000    
      2025 IM1H     102      IM1H     H3       HDA3A    0.135000       1.00800           0   0.00000       0.00000    
      2026 IM1H     102      IM1H     N1       ND2R5C    1.71300       13.6070           0 -0.803000       1.00000    
      2027 IM1H     102      IM1H     DN1      DRUD     -1.55500      0.400000           0   0.00000       0.00000    
      2028 IM1H     102      IM1H     C2       CD2R5D    1.69890       11.6110           0  -1.08300       1.10000    
      2029 IM1H     102      IM1H     DC2      DRUD     -1.80590      0.400000           0   0.00000       0.00000    
      2030 IM1H     102      IM1H     H4       HDR5D    0.195000       1.00800           0   0.00000       0.00000    
      2031 IM1H     102      IM1H     C3       CD2R5D    1.75890       11.6110           0  -1.08300       1.10000    
      2032 IM1H     102      IM1H     DC3      DRUD     -1.80590      0.400000           0   0.00000       0.00000    
      2033 IM1H     102      IM1H     H5       HDR5D    0.192000       1.00800           0   0.00000       0.00000    
      2034 IM1H     102      IM1H     C4       CD2R5E    1.91950       11.6110           0  -1.25300       1.20000    
      2035 IM1H     102      IM1H     DC4      DRUD     -1.94250      0.400000           0   0.00000       0.00000    
      2036 IM1H     102      IM1H     H6       HDR5E    0.203000       1.00800           0   0.00000       0.00000    
      2037 IM1H     102      IM1H     N2       ND2R5C    1.39800       13.6070           0 -0.803000       1.00000    
      2038 IM1H     102      IM1H     DN2      DRUD     -1.55500      0.400000           0   0.00000       0.00000    
      2039 IM1H     102      IM1H     H7       HDP1A    0.363000       1.00800           0   0.00000       0.00000    
      2040 IM1H     102      IM1H     LPN21    LPD       0.00000       0.00000          -1   0.00000       0.00000    
      2041 IM1H     103      IM1H     C1       CD33F     1.70390       11.6110           0  -1.18100       1.10000    
      2042 IM1H     103      IM1H     DC1      DRUD     -1.88590      0.400000           0   0.00000       0.00000    
      2043 IM1H     103      IM1H     H1       HDA3A    0.135000       1.00800           0   0.00000       0.00000    
      2044 IM1H     103      IM1H     H2       HDA3A    0.135000       1.00800           0   0.00000       0.00000    
      2045 IM1H     103      IM1H     H3       HDA3A    0.135000       1.00800           0   0.00000       0.00000    
      2046 IM1H     103      IM1H     N1       ND2R5C    1.71300       13.6070           0 -0.803000       1.00000    
      2047 IM1H     103      IM1H     DN1      DRUD     -1.55500      0.400000           0   0.00000       0.00000    
      2048 IM1H     103      IM1H     C2       CD2R5D    1.69890       11.6110           0  -1.08300       1.10000    
      2049 IM1H     103      IM1H     DC2      DRUD     -1.80590      0.400000           0   0.00000       0.00000    
      2050 IM1H     103      IM1H     H4       HDR5D    0.195000       1.00800           0   0.00000       0.00000    
      2051 IM1H     103      IM1H     C3       CD2R5D    1.75890       11.6110           0  -1.08300       1.10000    
      2052 IM1H     103      IM1H     DC3      DRUD     -1.80590      0.400000           0   0.00000       0.00000    
      2053 IM1H     103      IM1H     H5       HDR5D    0.192000       1.00800           0   0.00000       0.00000    
      2054 IM1H     103      IM1H     C4       CD2R5E    1.91950       11.6110           0  -1.25300       1.20000    
      2055 IM1H     103      IM1H     DC4      DRUD     -1.94250      0.400000           0   0.00000       0.00000    
      2056 IM1H     103      IM1H     H6       HDR5E    0.203000       1.00800           0   0.00000       0.00000    
      2057 IM1H     103      IM1H     N2       ND2R5C    1.39800       13.6070           0 -0.803000       1.00000    
      2058 IM1H     103      IM1H     DN2      DRUD     -1.55500      0.400000           0   0.00000       0.00000    
      2059 IM1H     103      IM1H     H7       HDP1A    0.363000       1.00800           0   0.00000       0.00000    
      2060 IM1H     103      IM1H     LPN21    LPD       0.00000       0.00000          -1   0.00000       0.00000    
      2061 IM1H     104      IM1H     C1       CD33F     1.70390       11.6110           0  -1.18100       1.10000    
      2062 IM1H     104      IM1H     DC1      DRUD     -1.88590      0.400000           0   0.00000       0.00000    
      2063 IM1H     104      IM1H     H1       HDA3A    0.135000       1.00800           0   0.00000       0.00000    
      2064 IM1H     104      IM1H     H2       HDA3A    0.135000       1.00800           0   0.00000       0.00000    
      2065 IM1H     104      IM1H     H3       HDA3A    0.135000       1.00800           0   0.00000       0.00000    
      2066 IM1H     104      IM1H     N1       ND2R5C    1.71300       13.6070           0 -0.803000       1.00000    
      2067 IM1H     104      IM1H     DN1      DRUD     -1.55500      0.400000           0   0.00000       0.00000    
      2068 IM1H     104      IM1H     C2       CD2R5D    1.69890       11.6110           0  -1.08300       1.10000    
      2069 IM1H     104      IM1H     DC2      DRUD     -1.80590      0.400000           0   0.00000       0.00000    
      2070 IM1H     104      IM1H     H4       HDR5D    0.195000       1.00800           0   0.00000       0.00000    
      2071 IM1H     104      IM1H     C3       CD2R5D    1.75890       11.6110           0  -1.08300       1.10000    
      2072 IM1H     104      IM1H     DC3      DRUD     -1.80590      0.400000           0   0.00000       0.00000    
      2073 IM1H     104      IM1H     H5       HDR5D    0.192000       1.00800           0   0.00000       0.00000    
      2074 IM1H     104      IM1H     C4       CD2R5E    1.91950       11.6110           0  -1.25300       1.20000    
      2075 IM1H     104      IM1H     DC4      DRUD     -1.94250      0.400000           0   0.00000       0.00000    
      2076 IM1H     104      IM1H     H6       HDR5E    0.203000       1.00800           0   0.00000       0.00000    
      2077 IM1H     104      IM1H     N2       ND2R5C    1.39800       13.6070           0 -0.803000       1.00000    
      2078 IM1H     104      IM1H     DN2      DRUD     -1.55500      0.400000           0   0.00000       0.00000    
      2079 IM1H     104      IM1H     H7       HDP1A    0.363000       1.00800           0   0.00000       0.00000    
      2080 IM1H     104      IM1H     LPN21    LPD       0.00000       0.00000          -1   0.00000       0.00000    
      2081 IM1H     105      IM1H     C1       CD33F     1.70390       11.6110           0  -1.18100       1.10000    
      2082 IM1H     105      IM1H     DC1      DRUD     -1.88590      0.400000           0   0.00000       0.00000    
      2083 IM1H     105      IM1H     H1       HDA3A    0.135000       1.00800           0   0.00000       0.00000    
      2084 IM1H     105      IM1H     H2       HDA3A    0.135000       1.00800           0   0.00000       0.00000    
      2085 IM1H     105      IM1H     H3       HDA3A    0.135000       1.00800           0   0.00000       0.00000    
      2086 IM1H     105      IM1H     N1       ND2R5C    1.71300       13.6070           0 -0.803000       1.00000    
      2087 IM1H     105      IM1H     DN1      DRUD     -1.55500      0.400000           0   0.00000       0.00000    
      2088 IM1H     105      IM1H     C2       CD2R5D    1.69890       11.6110           0  -1.08300       1.10000    
      2089 IM1H     105      IM1H     DC2      DRUD     -1.80590      0.400000           0   0.00000       0.00000    
      2090 IM1H     105      IM1H     H4       HDR5D    0.195000       1.00800           0   0.00000       0.00000    
      2091 IM1H     105      IM1H     C3       CD2R5D    1.75890       11.6110           0  -1.08300       1.10000    
      2092 IM1H     105      IM1H     DC3      DRUD     -1.80590      0.400000           0   0.00000       0.00000    
      2093 IM1H     105      IM1H     H5       HDR5D    0.192000       1.00800           0   0.00000       0.00000    
      2094 IM1H     105      IM1H     C4       CD2R5E    1.91950       11.6110           0  -1.25300       1.20000    
      2095 IM1H     105      IM1H     DC4      DRUD     -1.94250      0.400000           0   0.00000       0.00000    
      2096 IM1H     105      IM1H     H6       HDR5E    0.203000       1.00800           0   0.00000       0.00000    
      2097 IM1H     105      IM1H     N2       ND2R5C    1.39800       13.6070           0 -0.803000       1.00000    
      2098 IM1H     105      IM1H     DN2      DRUD     -1.55500      0.400000           0   0.00000       0.00000    
      2099 IM1H     105      IM1H     H7       HDP1A    0.363000       1.00800           0   0.00000       0.00000    
      2100 IM1H     105      IM1H     LPN21    LPD       0.00000       0.00000          -1   0.00000       0.00000    
      2101 IM1H     106      IM1H     C1       CD33F     1.70390       11.6110           0  -1.18100       1.10000    
      2102 IM1H     106      IM1H     DC1      DRUD     -1.88590      0.400000           0   0.00000       0.00000    
      2103 IM1H     106      IM1H     H1       HDA3A    0.135000       1.00800           0   0.00000       0.00000    
      2104 IM1H     106      IM1H     H2       HDA3A    0.135000       1.00800           0   0.00000       0.00000    
      2105 IM1H     106      IM1H     H3       HDA3A    0.135000       1.00800           0   0.00000       0.00000    
      2106 IM1H     106      IM1H     N1       ND2R5C    1.71300       13.6070           0 -0.803000       1.00000    
      2107 IM1H     106      IM1H     DN1      DRUD     -1.55500      0.400000           0   0.00000       0.00000    
      2108 IM1H     106      IM1H     C2       CD2R5D    1.69890       11.6110           0  -1.08300       1.10000    
      2109 IM1H     106      IM1H     DC2      DRUD     -1.80590      0.400000           0   0.00000       0.00000    
      2110 IM1H     106      IM1H     H4       HDR5D    0.195000       1.00800           0   0.00000       0.00000    
      2111 IM1H     106      IM1H     C3       CD2R5D    1.75890       11.6110           0  -1.08300       1.10000    
      2112 IM1H     106      IM1H     DC3      DRUD     -1.80590      0.400000           0   0.00000       0.00000    
      2113 IM1H     106      IM1H     H5       HDR5D    0.192000       1.00800           0   0.00000       0.00000    
      2114 IM1H     106      IM1H     C4       CD2R5E    1.91950       11.6110           0  -1.25300       1.20000    
      2115 IM1H     106      IM1H     DC4      DRUD     -1.94250      0.400000           0   0.00000       0.00000    
      2116 IM1H     106      IM1H     H6       HDR5E    0.203000       1.00800           0   0.00000       0.00000    
      2117 IM1H     106      IM1H     N2       ND2R5C    1.39800       13.6070           0 -0.803000       1.00000    
      2118 IM1H     106      IM1H     DN2      DRUD     -1.55500      0.400000           0   0.00000       0.00000    
      2119 IM1H     106      IM1H     H7       HDP1A    0.363000       1.00800           0   0.00000       0.00000    
      2120 IM1H     106      IM1H     LPN21    LPD       0.00000       0.00000          -1   0.00000       0.00000    
      2121 IM1H     107      IM1H     C1       CD33F     1.70390       11.6110           0  -1.18100       1.10000    
      2122 IM1H     107      IM1H     DC1      DRUD     -1.88590      0.400000           0   0.00000       0.00000    
      2123 IM1H     107      IM1H     H1       HDA3A    0.135000       1.00800           0   0.00000       0.00000    
      2124 IM1H     107      IM1H     H2       HDA3A    0.135000       1.00800           0   0.00000       0.00000    
      2125 IM1H     107      IM1H     H3       HDA3A    0.135000       1.00800           0   0.00000       0.00000    
      2126 IM1H     107      IM1H     N1       ND2R5C    1.71300       13.6070           0 -0.803000       1.00000    
      2127 IM1H     107      IM1H     DN1      DRUD     -1.55500      0.400000           0   0.00000       0.00000    
      2128 IM1H     107      IM1H     C2       CD2R5D    1.69890       11.6110           0  -1.08300       1.10000    
      2129 IM1H     107      IM1H     DC2      DRUD     -1.80590      0.400000           0   0.00000       0.00000    
      2130 IM1H     107      IM1H     H4       HDR5D    0.195000       1.00800           0   0.00000       0.00000    
      2131 IM1H     107      IM1H     C3       CD2R5D    1.75890       11.6110           0  -1.08300       1.10000    
      2132 IM1H     107      IM1H     DC3      DRUD     -1.80590      0.400000           0   0.00000       0.00000    
      2133 IM1H     107      IM1H     H5       HDR5D    0.192000       1.00800           0   0.00000       0.00000    
      2134 IM1H     107      IM1H     C4       CD2R5E    1.91950       11.6110           0  -1.25300       1.20000    
      2135 IM1H     107      IM1H     DC4      DRUD     -1.94250      0.400000           0   0.00000       0.00000    
      2136 IM1H     107      IM1H     H6       HDR5E    0.203000       1.00800           0   0.00000       0.00000    
      2137 IM1H     107      IM1H     N2       ND2R5C    1.39800       13.6070           0 -0.803000       1.00000    
      2138 IM1H     107      IM1H     DN2      DRUD     -1.55500      0.400000           0   0.00000       0.00000    
      2139 IM1H     107      IM1H     H7       HDP1A    0.363000       1.00800           0   0.00000       0.00000    
      2140 IM1H     107      IM1H     LPN21    LPD       0.00000       0.00000          -1   0.00000       0.00000    
      2141 IM1H     108      IM1H     C1       CD33F     1.70390       11.6110           0  -1.18100       1.10000    
      2142 IM1H     108      IM1H     DC1      DRUD     -1.88590      0.400000           0   0.00000       0.00000    
      2143 IM1H     108      IM1H     H1       HDA3A    0.135000       1.00800           0   0.00000       0.00000    
      2144 IM1H     108      IM1H     H2       HDA3A    0.135000       1.00800           0   0.00000       0.00000    
      2145 IM1H     108      IM1H     H3       HDA3A    0.135000       1.00800           0   0.00000       0.00000    
      2146 IM1H     108      IM1H     N1       ND2R5C    1.71300       13.6070           0 -0.803000       1.00000    
      2147 IM1H     108      IM1H     DN1      DRUD     -1.55500      0.400000           0   0.00000       0.00000    
      2148 IM1H     108      IM1H     C2       CD2R5D    1.69890       11.6110           0  -1.08300       1.10000    
      2149 IM1H     108      IM1H     DC2      DRUD     -1.80590      0.400000           0   0.00000       0.00000    
      2150 IM1H     108      IM1H     H4       HDR5D    0.195000       1.00800           0   0.00000       0.00000    
      2151 IM1H     108      IM1H     C3       CD2R5D    1.75890       11.6110           0  -1.08300       1.10000    
      2152 IM1H     108      IM1H     DC3      DRUD     -1.80590      0.400000           0   0.00000       0.00000    
      2153 IM1H     108      IM1H     H5       HDR5D    0.192000       1.00800           0   0.00000       0.00000    
      2154 IM1H     108      IM1H     C4       CD2R5E    1.91950       11.6110           0  -1.25300       1.20000    
      2155 IM1H     108      IM1H     DC4      DRUD     -1.94250      0.400000           0   0.00000       0.00000    
      2156 IM1H     108      IM1H     H6       HDR5E    0.203000       1.00800           0   0.00000       0.00000    
      2157 IM1H     108      IM1H     N2       ND2R5C    1.39800       13.6070           0 -0.803000       1.00000    
      2158 IM1H     108      IM1H     DN2      DRUD     -1.55500      0.400000           0   0.00000       0.00000    
      2159 IM1H     108      IM1H     H7       HDP1A    0.363000       1.00800           0   0.00000       0.00000    
      2160 IM1H     108      IM1H     LPN21    LPD       0.00000       0.00000          -1   0.00000       0.00000    
      2161 IM1H     109      IM1H     C1       CD33F     1.70390       11.6110           0  -1.18100       1.10000    
      2162 IM1H     109      IM1H     DC1      DRUD     -1.88590      0.400000           0   0.00000       0.00000    
      2163 IM1H     109      IM1H     H1       HDA3A    0.135000       1.00800           0   0.00000       0.00000    
      2164 IM1H     109      IM1H     H2       HDA3A    0.135000       1.00800           0   0.00000       0.00000    
      2165 IM1H     109      IM1H     H3       HDA3A    0.135000       1.00800           0   0.00000       0.00000    
      2166 IM1H     109      IM1H     N1       ND2R5C    1.71300       13.6070           0 -0.803000       1.00000    
      2167 IM1H     109      IM1H     DN1      DRUD     -1.55500      0.400000           0   0.00000       0.00000    
      2168 IM1H     109      IM1H     C2       CD2R5D    1.69890       11.6110           0  -1.08300       1.10000    
      2169 IM1H     109      IM1H     DC2      DRUD     -1.80590      0.400000           0   0.00000       0.00000    
      2170 IM1H     109      IM1H     H4       HDR5D    0.195000       1.00800           0   0.00000       0.00000    
      2171 IM1H     109      IM1H     C3       CD2R5D    1.75890       11.6110           0  -1.08300       1.10000    
      2172 IM1H     109      IM1H     DC3      DRUD     -1.80590      0.400000           0   0.00000       0.00000    
      2173 IM1H     109      IM1H     H5       HDR5D    0.192000       1.00800           0   0.00000       0.00000    
      2174 IM1H     109      IM1H     C4       CD2R5E    1.91950       11.6110           0  -1.25300       1.20000    
      2175 IM1H     109      IM1H     DC4      DRUD     -1.94250      0.400000           0   0.00000       0.00000    
      2176 IM1H     109      IM1H     H6       HDR5E    0.203000       1.00800           0   0.00000       0.00000    
      2177 IM1H     109      IM1H     N2       ND2R5C    1.39800       13.6070           0 -0.803000       1.00000    
      2178 IM1H     109      IM1H     DN2      DRUD     -1.55500      0.400000           0   0.00000       0.00000    
      2179 IM1H     109      IM1H     H7       HDP1A    0.363000       1.00800           0   0.00000       0.00000    
      2180 IM1H     109      IM1H     LPN21    LPD       0.00000       0.00000          -1   0.00000       0.00000    
      2181 IM1H     110      IM1H     C1       CD33F     1.70390       11.6110           0  -1.18100       1.10000    
      2182 IM1H     110      IM1H     DC1      DRUD     -1.88590      0.400000           0   0.00000       0.00000    
      2183 IM1H     110      IM1H     H1       HDA3A    0.135000       1.00800           0   0.00000       0.00000    
      2184 IM1H     110      IM1H     H2       HDA3A    0.135000       1.00800           0   0.00000       0.00000    
      2185 IM1H     110      IM1H     H3       HDA3A    0.135000       1.00800           0   0.00000       0.00000    
      2186 IM1H     110      IM1H     N1       ND2R5C    1.71300       13.6070           0 -0.803000       1.00000    
      2187 IM1H     110      IM1H     DN1      DRUD     -1.55500      0.400000           0   0.00000       0.00000    
      2188 IM1H     110      IM1H     C2       CD2R5D    1.69890       11.6110           0  -1.08300       1.10000    
      2189 IM1H     110      IM1H     DC2      DRUD     -1.80590      0.400000           0   0.00000       0.00000    
      2190 IM1H     110      IM1H     H4       HDR5D    0.195000       1.00800           0   0.00000       0.00000    
      2191 IM1H     110      IM1H     C3       CD2R5D    1.75890       11.6110           0  -1.08300       1.10000    
      2192 IM1H     110      IM1H     DC3      DRUD     -1.80590      0.400000           0   0.00000       0.00000    
      2193 IM1H     110      IM1H     H5       HDR5D    0.192000       1.00800           0   0.00000       0.00000    
      2194 IM1H     110      IM1H     C4       CD2R5E    1.91950       11.6110           0  -1.25300       1.20000    
      2195 IM1H     110      IM1H     DC4      DRUD     -1.94250      0.400000           0   0.00000       0.00000    
      2196 IM1H     110      IM1H     H6       HDR5E    0.203000       1.00800           0   0.00000       0.00000    
      2197 IM1H     110      IM1H     N2       ND2R5C    1.39800       13.6070           0 -0.803000       1.00000    
      2198 IM1H     110      IM1H     DN2      DRUD     -1.55500      0.400000           0   0.00000       0.00000    
      2199 IM1H     110      IM1H     H7       HDP1A    0.363000       1.00800           0   0.00000       0.00000    
      2200 IM1H     110      IM1H     LPN21    LPD       0.00000       0.00000          -1   0.00000       0.00000    
      2201 IM1H     111      IM1H     C1       CD33F     1.70390       11.6110           0  -1.18100       1.10000    
      2202 IM1H     111      IM1H     DC1      DRUD     -1.88590      0.400000           0   0.00000       0.00000    
      2203 IM1H     111      IM1H     H1       HDA3A    0.135000       1.00800           0   0.00000       0.00000    
      2204 IM1H     111      IM1H     H2       HDA3A    0.135000       1.00800           0   0.00000       0.00000    
      2205 IM1H     111      IM1H     H3       HDA3A    0.135000       1.00800           0   0.00000       0.00000    
      2206 IM1H     111      IM1H     N1       ND2R5C    1.71300       13.6070           0 -0.803000       1.00000    
      2207 IM1H     111      IM1H     DN1      DRUD     -1.55500      0.400000           0   0.00000       0.00000    
      2208 IM1H     111      IM1H     C2       CD2R5D    1.69890       11.6110           0  -1.08300       1.10000    
      2209 IM1H     111      IM1H     DC2      DRUD     -1.80590      0.400000           0   0.00000       0.00000    
      2210 IM1H     111      IM1H     H4       HDR5D    0.195000       1.00800           0   0.00000       0.00000    
      2211 IM1H     111      IM1H     C3       CD2R5D    1.75890       11.6110           0  -1.08300       1.10000    
      2212 IM1H     111      IM1H     DC3      DRUD     -1.80590      0.400000           0   0.00000       0.00000    
      2213 IM1H     111      IM1H     H5       HDR5D    0.192000       1.00800           0   0.00000       0.00000    
      2214 IM1H     111      IM1H     C4       CD2R5E    1.91950       11.6110           0  -1.25300       1.20000    
      2215 IM1H     111      IM1H     DC4      DRUD     -1.94250      0.400000           0   0.00000       0.00000    
      2216 IM1H     111      IM1H     H6       HDR5E    0.203000       1.00800           0   0.00000       0.00000    
      2217 IM1H     111      IM1H     N2       ND2R5C    1.39800       13.6070           0 -0.803000       1.00000    
      2218 IM1H     111      IM1H     DN2      DRUD     -1.55500      0.400000           0   0.00000       0.00000    
      2219 IM1H     111      IM1H     H7       HDP1A    0.363000       1.00800           0   0.00000       0.00000    
      2220 IM1H     111      IM1H     LPN21    LPD       0.00000       0.00000          -1   0.00000       0.00000    
      2221 IM1H     112      IM1H     C1       CD33F     1.70390       11.6110           0  -1.18100       1.10000    
      2222 IM1H     112      IM1H     DC1      DRUD     -1.88590      0.400000           0   0.00000       0.00000    
      2223 IM1H     112      IM1H     H1       HDA3A    0.135000       1.00800           0   0.00000       0.00000    
      2224 IM1H     112      IM1H     H2       HDA3A    0.135000       1.00800           0   0.00000       0.00000    
      2225 IM1H     112      IM1H     H3       HDA3A    0.135000       1.00800           0   0.00000       0.00000    
      2226 IM1H     112      IM1H     N1       ND2R5C    1.71300       13.6070           0 -0.803000       1.00000    
      2227 IM1H     112      IM1H     DN1      DRUD     -1.55500      0.400000           0   0.00000       0.00000    
      2228 IM1H     112      IM1H     C2       CD2R5D    1.69890       11.6110           0  -1.08300       1.10000    
      2229 IM1H     112      IM1H     DC2      DRUD     -1.80590      0.400000           0   0.00000       0.00000    
      2230 IM1H     112      IM1H     H4       HDR5D    0.195000       1.00800           0   0.00000       0.00000    
      2231 IM1H     112      IM1H     C3       CD2R5D    1.75890       11.6110           0  -1.08300       1.10000    
      2232 IM1H     112      IM1H     DC3      DRUD     -1.80590      0.400000           0   0.00000       0.00000    
      2233 IM1H     112      IM1H     H5       HDR5D    0.192000       1.00800           0   0.00000       0.00000    
      2234 IM1H     112      IM1H     C4       CD2R5E    1.91950       11.6110           0  -1.25300       1.20000    
      2235 IM1H     112      IM1H     DC4      DRUD     -1.94250      0.400000           0   0.00000       0.00000    
      2236 IM1H     112      IM1H     H6       HDR5E    0.203000       1.00800           0   0.00000       0.00000    
      2237 IM1H     112      IM1H     N2       ND2R5C    1.39800       13.6070           0 -0.803000       1.00000    
      2238 IM1H     112      IM1H     DN2      DRUD     -1.55500      0.400000           0   0.00000       0.00000    
      2239 IM1H     112      IM1H     H7       HDP1A    0.363000       1.00800           0   0.00000       0.00000    
      2240 IM1H     112      IM1H     LPN21    LPD       0.00000       0.00000          -1   0.00000       0.00000    
      2241 IM1H     113      IM1H     C1       CD33F     1.70390       11.6110           0  -1.18100       1.10000    
      2242 IM1H     113      IM1H     DC1      DRUD     -1.88590      0.400000           0   0.00000       0.00000    
      2243 IM1H     113      IM1H     H1       HDA3A    0.135000       1.00800           0   0.00000       0.00000    
      2244 IM1H     113      IM1H     H2       HDA3A    0.135000       1.00800           0   0.00000       0.00000    
      2245 IM1H     113      IM1H     H3       HDA3A    0.135000       1.00800           0   0.00000       0.00000    
      2246 IM1H     113      IM1H     N1       ND2R5C    1.71300       13.6070           0 -0.803000       1.00000    
      2247 IM1H     113      IM1H     DN1      DRUD     -1.55500      0.400000           0   0.00000       0.00000    
      2248 IM1H     113      IM1H     C2       CD2R5D    1.69890       11.6110           0  -1.08300       1.10000    
      2249 IM1H     113      IM1H     DC2      DRUD     -1.80590      0.400000           0   0.00000       0.00000    
      2250 IM1H     113      IM1H     H4       HDR5D    0.195000       1.00800           0   0.00000       0.00000    
      2251 IM1H     113      IM1H     C3       CD2R5D    1.75890       11.6110           0  -1.08300       1.10000    
      2252 IM1H     113      IM1H     DC3      DRUD     -1.80590      0.400000           0   0.00000       0.00000    
      2253 IM1H     113      IM1H     H5       HDR5D    0.192000       1.00800           0   0.00000       0.00000    
      2254 IM1H     113      IM1H     C4       CD2R5E    1.91950       11.6110           0  -1.25300       1.20000    
      2255 IM1H     113      IM1H     DC4      DRUD     -1.94250      0.400000           0   0.00000       0.00000    
      2256 IM1H     113      IM1H     H6       HDR5E    0.203000       1.00800           0   0.00000       0.00000    
      2257 IM1H     113      IM1H     N2       ND2R5C    1.39800       13.6070           0 -0.803000       1.00000    
      2258 IM1H     113      IM1H     DN2      DRUD     -1.55500      0.400000           0   0.00000       0.00000    
      2259 IM1H     113      IM1H     H7       HDP1A    0.363000       1.00800           0   0.00000       0.00000    
      2260 IM1H     113      IM1H     LPN21    LPD       0.00000       0.00000          -1   0.00000       0.00000    
      2261 IM1H     114      IM1H     C1       CD33F     1.70390       11.6110           0  -1.18100       1.10000    
      2262 IM1H     114      IM1H     DC1      DRUD     -1.88590      0.400000           0   0.00000       0.00000    
      2263 IM1H     114      IM1H     H1       HDA3A    0.135000       1.00800           0   0.00000       0.00000    
      2264 IM1H     114      IM1H     H2       HDA3A    0.135000       1.00800           0   0.00000       0.00000    
      2265 IM1H     114      IM1H     H3       HDA3A    0.135000       1.00800           0   0.00000       0.00000    
      2266 IM1H     114      IM1H     N1       ND2R5C    1.71300       13.6070           0 -0.803000       1.00000    
      2267 IM1H     114      IM1H     DN1      DRUD     -1.55500      0.400000           0   0.00000       0.00000    
      2268 IM1H     114      IM1H     C2       CD2R5D    1.69890       11.6110           0  -1.08300       1.10000    
      2269 IM1H     114      IM1H     DC2      DRUD     -1.80590      0.400000           0   0.00000       0.00000    
      2270 IM1H     114      IM1H     H4       HDR5D    0.195000       1.00800           0   0.00000       0.00000    
      2271 IM1H     114      IM1H     C3       CD2R5D    1.75890       11.6110           0  -1.08300       1.10000    
      2272 IM1H     114      IM1H     DC3      DRUD     -1.80590      0.400000           0   0.00000       0.00000    
      2273 IM1H     114      IM1H     H5       HDR5D    0.192000       1.00800           0   0.00000       0.00000    
      2274 IM1H     114      IM1H     C4       CD2R5E    1.91950       11.6110           0  -1.25300       1.20000    
      2275 IM1H     114      IM1H     DC4      DRUD     -1.94250      0.400000           0   0.00000       0.00000    
      2276 IM1H     114      IM1H     H6       HDR5E    0.203000       1.00800           0   0.00000       0.00000    
      2277 IM1H     114      IM1H     N2       ND2R5C    1.39800       13.6070           0 -0.803000       1.00000    
      2278 IM1H     114      IM1H     DN2      DRUD     -1.55500      0.400000           0   0.00000       0.00000    
      2279 IM1H     114      IM1H     H7       HDP1A    0.363000       1.00800           0   0.00000       0.00000    
      2280 IM1H     114      IM1H     LPN21    LPD       0.00000       0.00000          -1   0.00000       0.00000    
      2281 IM1H     115      IM1H     C1       CD33F     1.70390       11.6110           0  -1.18100       1.10000    
      2282 IM1H     115      IM1H     DC1      DRUD     -1.88590      0.400000           0   0.00000       0.00000    
      2283 IM1H     115      IM1H     H1       HDA3A    0.135000       1.00800           0   0.00000       0.00000    
      2284 IM1H     115      IM1H     H2       HDA3A    0.135000       1.00800           0   0.00000       0.00000    
      2285 IM1H     115      IM1H     H3       HDA3A    0.135000       1.00800           0   0.00000       0.00000    
      2286 IM1H     115      IM1H     N1       ND2R5C    1.71300       13.6070           0 -0.803000       1.00000    
      2287 IM1H     115      IM1H     DN1      DRUD     -1.55500      0.400000           0   0.00000       0.00000    
      2288 IM1H     115      IM1H     C2       CD2R5D    1.69890       11.6110           0  -1.08300       1.10000    
      2289 IM1H     115      IM1H     DC2      DRUD     -1.80590      0.400000           0   0.00000       0.00000    
      2290 IM1H     115      IM1H     H4       HDR5D    0.195000       1.00800           0   0.00000       0.00000    
      2291 IM1H     115      IM1H     C3       CD2R5D    1.75890       11.6110           0  -1.08300       1.10000    
      2292 IM1H     115      IM1H     DC3      DRUD     -1.80590      0.400000           0   0.00000       0.00000    
      2293 IM1H     115      IM1H     H5       HDR5D    0.192000       1.00800           0   0.00000       0.00000    
      2294 IM1H     115      IM1H     C4       CD2R5E    1.91950       11.6110           0  -1.25300       1.20000    
      2295 IM1H     115      IM1H     DC4      DRUD     -1.94250      0.400000           0   0.00000       0.00000    
      2296 IM1H     115      IM1H     H6       HDR5E    0.203000       1.00800           0   0.00000       0.00000    
      2297 IM1H     115      IM1H     N2       ND2R5C    1.39800       13.6070           0 -0.803000       1.00000    
      2298 IM1H     115      IM1H     DN2      DRUD     -1.55500      0.400000           0   0.00000       0.00000    
      2299 IM1H     115      IM1H     H7       HDP1A    0.363000       1.00800           0   0.00000       0.00000    
      2300 IM1H     115      IM1H     LPN21    LPD       0.00000       0.00000          -1   0.00000       0.00000    
      2301 IM1H     116      IM1H     C1       CD33F     1.70390       11.6110           0  -1.18100       1.10000    
      2302 IM1H     116      IM1H     DC1      DRUD     -1.88590      0.400000           0   0.00000       0.00000    
      2303 IM1H     116      IM1H     H1       HDA3A    0.135000       1.00800           0   0.00000       0.00000    
      2304 IM1H     116      IM1H     H2       HDA3A    0.135000       1.00800           0   0.00000       0.00000    
      2305 IM1H     116      IM1H     H3       HDA3A    0.135000       1.00800           0   0.00000       0.00000    
      2306 IM1H     116      IM1H     N1       ND2R5C    1.71300       13.6070           0 -0.803000       1.00000    
      2307 IM1H     116      IM1H     DN1      DRUD     -1.55500      0.400000           0   0.00000       0.00000    
      2308 IM1H     116      IM1H     C2       CD2R5D    1.69890       11.6110           0  -1.08300       1.10000    
      2309 IM1H     116      IM1H     DC2      DRUD     -1.80590      0.400000           0   0.00000       0.00000    
      2310 IM1H     116      IM1H     H4       HDR5D    0.195000       1.00800           0   0.00000       0.00000    
      2311 IM1H     116      IM1H     C3       CD2R5D    1.75890       11.6110           0  -1.08300       1.10000    
      2312 IM1H     116      IM1H     DC3      DRUD     -1.80590      0.400000           0   0.00000       0.00000    
      2313 IM1H     116      IM1H     H5       HDR5D    0.192000       1.00800           0   0.00000       0.00000    
      2314 IM1H     116      IM1H     C4       CD2R5E    1.91950       11.6110           0  -1.25300       1.20000    
      2315 IM1H     116      IM1H     DC4      DRUD     -1.94250      0.400000           0   0.00000       0.00000    
      2316 IM1H     116      IM1H     H6       HDR5E    0.203000       1.00800           0   0.00000       0.00000    
      2317 IM1H     116      IM1H     N2       ND2R5C    1.39800       13.6070           0 -0.803000       1.00000    
      2318 IM1H     116      IM1H     DN2      DRUD     -1.55500      0.400000           0   0.00000       0.00000    
      2319 IM1H     116      IM1H     H7       HDP1A    0.363000       1.00800           0   0.00000       0.00000    
      2320 IM1H     116      IM1H     LPN21    LPD       0.00000       0.00000          -1   0.00000       0.00000    
      2321 IM1H     117      IM1H     C1       CD33F     1.70390       11.6110           0  -1.18100       1.10000    
      2322 IM1H     117      IM1H     DC1      DRUD     -1.88590      0.400000           0   0.00000       0.00000    
      2323 IM1H     117      IM1H     H1       HDA3A    0.135000       1.00800           0   0.00000       0.00000    
      2324 IM1H     117      IM1H     H2       HDA3A    0.135000       1.00800           0   0.00000       0.00000    
      2325 IM1H     117      IM1H     H3       HDA3A    0.135000       1.00800           0   0.00000       0.00000    
      2326 IM1H     117      IM1H     N1       ND2R5C    1.71300       13.6070           0 -0.803000       1.00000    
      2327 IM1H     117      IM1H     DN1      DRUD     -1.55500      0.400000           0   0.00000       0.00000    
      2328 IM1H     117      IM1H     C2       CD2R5D    1.69890       11.6110           0  -1.08300       1.10000    
      2329 IM1H     117      IM1H     DC2      DRUD     -1.80590      0.400000           0   0.00000       0.00000    
      2330 IM1H     117      IM1H     H4       HDR5D    0.195000       1.00800           0   0.00000       0.00000    
      2331 IM1H     117      IM1H     C3       CD2R5D    1.75890       11.6110           0  -1.08300       1.10000    
      2332 IM1H     117      IM1H     DC3      DRUD     -1.80590      0.400000           0   0.00000       0.00000    
      2333 IM1H     117      IM1H     H5       HDR5D    0.192000       1.00800           0   0.00000       0.00000    
      2334 IM1H     117      IM1H     C4       CD2R5E    1.91950       11.6110           0  -1.25300       1.20000    
      2335 IM1H     117      IM1H     DC4      DRUD     -1.94250      0.400000           0   0.00000       0.00000    
      2336 IM1H     117      IM1H     H6       HDR5E    0.203000       1.00800           0   0.00000       0.00000    
      2337 IM1H     117      IM1H     N2       ND2R5C    1.39800       13.6070           0 -0.803000       1.00000    
      2338 IM1H     117      IM1H     DN2      DRUD     -1.55500      0.400000           0   0.00000       0.00000    
      2339 IM1H     117      IM1H     H7       HDP1A    0.363000       1.00800           0   0.00000       0.00000    
      2340 IM1H     117      IM1H     LPN21    LPD       0.00000       0.00000          -1   0.00000       0.00000    
      2341 IM1H     118      IM1H     C1       CD33F     1.70390       11.6110           0  -1.18100       1.10000    
      2342 IM1H     118      IM1H     DC1      DRUD     -1.88590      0.400000           0   0.00000       0.00000    
      2343 IM1H     118      IM1H     H1       HDA3A    0.135000       1.00800           0   0.00000       0.00000    
      2344 IM1H     118      IM1H     H2       HDA3A    0.135000       1.00800           0   0.00000       0.00000    
      2345 IM1H     118      IM1H     H3       HDA3A    0.135000       1.00800           0   0.00000       0.00000    
      2346 IM1H     118      IM1H     N1       ND2R5C    1.71300       13.6070           0 -0.803000       1.00000    
      2347 IM1H     118      IM1H     DN1      DRUD     -1.55500      0.400000           0   0.00000       0.00000    
      2348 IM1H     118      IM1H     C2       CD2R5D    1.69890       11.6110           0  -1.08300       1.10000    
      2349 IM1H     118      IM1H     DC2      DRUD     -1.80590      0.400000           0   0.00000       0.00000    
      2350 IM1H     118      IM1H     H4       HDR5D    0.195000       1.00800           0   0.00000       0.00000    
      2351 IM1H     118      IM1H     C3       CD2R5D    1.75890       11.6110           0  -1.08300       1.10000    
      2352 IM1H     118      IM1H     DC3      DRUD     -1.80590      0.400000           0   0.00000       0.00000    
      2353 IM1H     118      IM1H     H5       HDR5D    0.192000       1.00800           0   0.00000       0.00000    
      2354 IM1H     118      IM1H     C4       CD2R5E    1.91950       11.6110           0  -1.25300       1.20000    
      2355 IM1H     118      IM1H     DC4      DRUD     -1.94250      0.400000           0   0.00000       0.00000    
      2356 IM1H     118      IM1H     H6       HDR5E    0.203000       1.00800           0   0.00000       0.00000    
      2357 IM1H     118      IM1H     N2       ND2R5C    1.39800       13.6070           0 -0.803000       1.00000    
      2358 IM1H     118      IM1H     DN2      DRUD     -1.55500      0.400000           0   0.00000       0.00000    
      2359 IM1H     118      IM1H     H7       HDP1A    0.363000       1.00800           0   0.00000       0.00000    
      2360 IM1H     118      IM1H     LPN21    LPD       0.00000       0.00000          -1   0.00000       0.00000    
      2361 IM1H     119      IM1H     C1       CD33F     1.70390       11.6110           0  -1.18100       1.10000    
      2362 IM1H     119      IM1H     DC1      DRUD     -1.88590      0.400000           0   0.00000       0.00000    
      2363 IM1H     119      IM1H     H1       HDA3A    0.135000       1.00800           0   0.00000       0.00000    
      2364 IM1H     119      IM1H     H2       HDA3A    0.135000       1.00800           0   0.00000       0.00000    
      2365 IM1H     119      IM1H     H3       HDA3A    0.135000       1.00800           0   0.00000       0.00000    
      2366 IM1H     119      IM1H     N1       ND2R5C    1.71300       13.6070           0 -0.803000       1.00000    
      2367 IM1H     119      IM1H     DN1      DRUD     -1.55500      0.400000           0   0.00000       0.00000    
      2368 IM1H     119      IM1H     C2       CD2R5D    1.69890       11.6110           0  -1.08300       1.10000    
      2369 IM1H     119      IM1H     DC2      DRUD     -1.80590      0.400000           0   0.00000       0.00000    
      2370 IM1H     119      IM1H     H4       HDR5D    0.195000       1.00800           0   0.00000       0.00000    
      2371 IM1H     119      IM1H     C3       CD2R5D    1.75890       11.6110           0  -1.08300       1.10000    
      2372 IM1H     119      IM1H     DC3      DRUD     -1.80590      0.400000           0   0.00000       0.00000    
      2373 IM1H     119      IM1H     H5       HDR5D    0.192000       1.00800           0   0.00000       0.00000    
      2374 IM1H     119      IM1H     C4       CD2R5E    1.91950       11.6110           0  -1.25300       1.20000    
      2375 IM1H     119      IM1H     DC4      DRUD     -1.94250      0.400000           0   0.00000       0.00000    
      2376 IM1H     119      IM1H     H6       HDR5E    0.203000       1.00800           0   0.00000       0.00000    
      2377 IM1H     119      IM1H     N2       ND2R5C    1.39800       13.6070           0 -0.803000       1.00000    
      2378 IM1H     119      IM1H     DN2      DRUD     -1.55500      0.400000           0   0.00000       0.00000    
      2379 IM1H     119      IM1H     H7       HDP1A    0.363000       1.00800           0   0.00000       0.00000    
      2380 IM1H     119      IM1H     LPN21    LPD       0.00000       0.00000          -1   0.00000       0.00000    
      2381 IM1H     120      IM1H     C1       CD33F     1.70390       11.6110           0  -1.18100       1.10000    
      2382 IM1H     120      IM1H     DC1      DRUD     -1.88590      0.400000           0   0.00000       0.00000    
      2383 IM1H     120      IM1H     H1       HDA3A    0.135000       1.00800           0   0.00000       0.00000    
      2384 IM1H     120      IM1H     H2       HDA3A    0.135000       1.00800           0   0.00000       0.00000    
      2385 IM1H     120      IM1H     H3       HDA3A    0.135000       1.00800           0   0.00000       0.00000    
      2386 IM1H     120      IM1H     N1       ND2R5C    1.71300       13.6070           0 -0.803000       1.00000    
      2387 IM1H     120      IM1H     DN1      DRUD     -1.55500      0.400000           0   0.00000       0.00000    
      2388 IM1H     120      IM1H     C2       CD2R5D    1.69890       11.6110           0  -1.08300       1.10000    
      2389 IM1H     120      IM1H     DC2      DRUD     -1.80590      0.400000           0   0.00000       0.00000    
      2390 IM1H     120      IM1H     H4       HDR5D    0.195000       1.00800           0   0.00000       0.00000    
      2391 IM1H     120      IM1H     C3       CD2R5D    1.75890       11.6110           0  -1.08300       1.10000    
      2392 IM1H     120      IM1H     DC3      DRUD     -1.80590      0.400000           0   0.00000       0.00000    
      2393 IM1H     120      IM1H     H5       HDR5D    0.192000       1.00800           0   0.00000       0.00000    
      2394 IM1H     120      IM1H     C4       CD2R5E    1.91950       11.6110           0  -1.25300       1.20000    
      2395 IM1H     120      IM1H     DC4      DRUD     -1.94250      0.400000           0   0.00000       0.00000    
      2396 IM1H     120      IM1H     H6       HDR5E    0.203000       1.00800           0   0.00000       0.00000    
      2397 IM1H     120      IM1H     N2       ND2R5C    1.39800       13.6070           0 -0.803000       1.00000    
      2398 IM1H     120      IM1H     DN2      DRUD     -1.55500      0.400000           0   0.00000       0.00000    
      2399 IM1H     120      IM1H     H7       HDP1A    0.363000       1.00800           0   0.00000       0.00000    
      2400 IM1H     120      IM1H     LPN21    LPD       0.00000       0.00000          -1   0.00000       0.00000    
      2401 IM1H     121      IM1H     C1       CD33F     1.70390       11.6110           0  -1.18100       1.10000    
      2402 IM1H     121      IM1H     DC1      DRUD     -1.88590      0.400000           0   0.00000       0.00000    
      2403 IM1H     121      IM1H     H1       HDA3A    0.135000       1.00800           0   0.00000       0.00000    
      2404 IM1H     121      IM1H     H2       HDA3A    0.135000       1.00800           0   0.00000       0.00000    
      2405 IM1H     121      IM1H     H3       HDA3A    0.135000       1.00800           0   0.00000       0.00000    
      2406 IM1H     121      IM1H     N1       ND2R5C    1.71300       13.6070           0 -0.803000       1.00000    
      2407 IM1H     121      IM1H     DN1      DRUD     -1.55500      0.400000           0   0.00000       0.00000    
      2408 IM1H     121      IM1H     C2       CD2R5D    1.69890       11.6110           0  -1.08300       1.10000    
      2409 IM1H     121      IM1H     DC2      DRUD     -1.80590      0.400000           0   0.00000       0.00000    
      2410 IM1H     121      IM1H     H4       HDR5D    0.195000       1.00800           0   0.00000       0.00000    
      2411 IM1H     121      IM1H     C3       CD2R5D    1.75890       11.6110           0  -1.08300       1.10000    
      2412 IM1H     121      IM1H     DC3      DRUD     -1.80590      0.400000           0   0.00000       0.00000    
      2413 IM1H     121      IM1H     H5       HDR5D    0.192000       1.00800           0   0.00000       0.00000    
      2414 IM1H     121      IM1H     C4       CD2R5E    1.91950       11.6110           0  -1.25300       1.20000    
      2415 IM1H     121      IM1H     DC4      DRUD     -1.94250      0.400000           0   0.00000       0.00000    
      2416 IM1H     121      IM1H     H6       HDR5E    0.203000       1.00800           0   0.00000       0.00000    
      2417 IM1H     121      IM1H     N2       ND2R5C    1.39800       13.6070           0 -0.803000       1.00000    
      2418 IM1H     121      IM1H     DN2      DRUD     -1.55500      0.400000           0   0.00000       0.00000    
      2419 IM1H     121      IM1H     H7       HDP1A    0.363000       1.00800           0   0.00000       0.00000    
      2420 IM1H     121      IM1H     LPN21    LPD       0.00000       0.00000          -1   0.00000       0.00000    
      2421 IM1H     122      IM1H     C1       CD33F     1.70390       11.6110           0  -1.18100       1.10000    
      2422 IM1H     122      IM1H     DC1      DRUD     -1.88590      0.400000           0   0.00000       0.00000    
      2423 IM1H     122      IM1H     H1       HDA3A    0.135000       1.00800           0   0.00000       0.00000    
      2424 IM1H     122      IM1H     H2       HDA3A    0.135000       1.00800           0   0.00000       0.00000    
      2425 IM1H     122      IM1H     H3       HDA3A    0.135000       1.00800           0   0.00000       0.00000    
      2426 IM1H     122      IM1H     N1       ND2R5C    1.71300       13.6070           0 -0.803000       1.00000    
      2427 IM1H     122      IM1H     DN1      DRUD     -1.55500      0.400000           0   0.00000       0.00000    
      2428 IM1H     122      IM1H     C2       CD2R5D    1.69890       11.6110           0  -1.08300       1.10000    
      2429 IM1H     122      IM1H     DC2      DRUD     -1.80590      0.400000           0   0.00000       0.00000    
      2430 IM1H     122      IM1H     H4       HDR5D    0.195000       1.00800           0   0.00000       0.00000    
      2431 IM1H     122      IM1H     C3       CD2R5D    1.75890       11.6110           0  -1.08300       1.10000    
      2432 IM1H     122      IM1H     DC3      DRUD     -1.80590      0.400000           0   0.00000       0.00000    
      2433 IM1H     122      IM1H     H5       HDR5D    0.192000       1.00800           0   0.00000       0.00000    
      2434 IM1H     122      IM1H     C4       CD2R5E    1.91950       11.6110           0  -1.25300       1.20000    
      2435 IM1H     122      IM1H     DC4      DRUD     -1.94250      0.400000           0   0.00000       0.00000    
      2436 IM1H     122      IM1H     H6       HDR5E    0.203000       1.00800           0   0.00000       0.00000    
      2437 IM1H     122      IM1H     N2       ND2R5C    1.39800       13.6070           0 -0.803000       1.00000    
      2438 IM1H     122      IM1H     DN2      DRUD     -1.55500      0.400000           0   0.00000       0.00000    
      2439 IM1H     122      IM1H     H7       HDP1A    0.363000       1.00800           0   0.00000       0.00000    
      2440 IM1H     122      IM1H     LPN21    LPD       0.00000       0.00000          -1   0.00000       0.00000    
      2441 IM1H     123      IM1H     C1       CD33F     1.70390       11.6110           0  -1.18100       1.10000    
      2442 IM1H     123      IM1H     DC1      DRUD     -1.88590      0.400000           0   0.00000       0.00000    
      2443 IM1H     123      IM1H     H1       HDA3A    0.135000       1.00800           0   0.00000       0.00000    
      2444 IM1H     123      IM1H     H2       HDA3A    0.135000       1.00800           0   0.00000       0.00000    
      2445 IM1H     123      IM1H     H3       HDA3A    0.135000       1.00800           0   0.00000       0.00000    
      2446 IM1H     123      IM1H     N1       ND2R5C    1.71300       13.6070           0 -0.803000       1.00000    
      2447 IM1H     123      IM1H     DN1      DRUD     -1.55500      0.400000           0   0.00000       0.00000    
      2448 IM1H     123      IM1H     C2       CD2R5D    1.69890       11.6110           0  -1.08300       1.10000    
      2449 IM1H     123      IM1H     DC2      DRUD     -1.80590      0.400000           0   0.00000       0.00000    
      2450 IM1H     123      IM1H     H4       HDR5D    0.195000       1.00800           0   0.00000       0.00000    
      2451 IM1H     123      IM1H     C3       CD2R5D    1.75890       11.6110           0  -1.08300       1.10000    
      2452 IM1H     123      IM1H     DC3      DRUD     -1.80590      0.400000           0   0.00000       0.00000    
      2453 IM1H     123      IM1H     H5       HDR5D    0.192000       1.00800           0   0.00000       0.00000    
      2454 IM1H     123      IM1H     C4       CD2R5E    1.91950       11.6110           0  -1.25300       1.20000    
      2455 IM1H     123      IM1H     DC4      DRUD     -1.94250      0.400000           0   0.00000       0.00000    
      2456 IM1H     123      IM1H     H6       HDR5E    0.203000       1.00800           0   0.00000       0.00000    
      2457 IM1H     123      IM1H     N2       ND2R5C    1.39800       13.6070           0 -0.803000       1.00000    
      2458 IM1H     123      IM1H     DN2      DRUD     -1.55500      0.400000           0   0.00000       0.00000    
      2459 IM1H     123      IM1H     H7       HDP1A    0.363000       1.00800           0   0.00000       0.00000    
      2460 IM1H     123      IM1H     LPN21    LPD       0.00000       0.00000          -1   0.00000       0.00000    
      2461 IM1H     124      IM1H     C1       CD33F     1.70390       11.6110           0  -1.18100       1.10000    
      2462 IM1H     124      IM1H     DC1      DRUD     -1.88590      0.400000           0   0.00000       0.00000    
      2463 IM1H     124      IM1H     H1       HDA3A    0.135000       1.00800           0   0.00000       0.00000    
      2464 IM1H     124      IM1H     H2       HDA3A    0.135000       1.00800           0   0.00000       0.00000    
      2465 IM1H     124      IM1H     H3       HDA3A    0.135000       1.00800           0   0.00000       0.00000    
      2466 IM1H     124      IM1H     N1       ND2R5C    1.71300       13.6070           0 -0.803000       1.00000    
      2467 IM1H     124      IM1H     DN1      DRUD     -1.55500      0.400000           0   0.00000       0.00000    
      2468 IM1H     124      IM1H     C2       CD2R5D    1.69890       11.6110           0  -1.08300       1.10000    
      2469 IM1H     124      IM1H     DC2      DRUD     -1.80590      0.400000           0   0.00000       0.00000    
      2470 IM1H     124      IM1H     H4       HDR5D    0.195000       1.00800           0   0.00000       0.00000    
      2471 IM1H     124      IM1H     C3       CD2R5D    1.75890       11.6110           0  -1.08300       1.10000    
      2472 IM1H     124      IM1H     DC3      DRUD     -1.80590      0.400000           0   0.00000       0.00000    
      2473 IM1H     124      IM1H     H5       HDR5D    0.192000       1.00800           0   0.00000       0.00000    
      2474 IM1H     124      IM1H     C4       CD2R5E    1.91950       11.6110           0  -1.25300       1.20000    
      2475 IM1H     124      IM1H     DC4      DRUD     -1.94250      0.400000           0   0.00000       0.00000    
      2476 IM1H     124      IM1H     H6       HDR5E    0.203000       1.00800           0   0.00000       0.00000    
      2477 IM1H     124      IM1H     N2       ND2R5C    1.39800       13.6070           0 -0.803000       1.00000    
      2478 IM1H     124      IM1H     DN2      DRUD     -1.55500      0.400000           0   0.00000       0.00000    
      2479 IM1H     124      IM1H     H7       HDP1A    0.363000       1.00800           0   0.00000       0.00000    
      2480 IM1H     124      IM1H     LPN21    LPD       0.00000       0.00000          -1   0.00000       0.00000    
      2481 IM1H     125      IM1H     C1       CD33F     1.70390       11.6110           0  -1.18100       1.10000    
      2482 IM1H     125      IM1H     DC1      DRUD     -1.88590      0.400000           0   0.00000       0.00000    
      2483 IM1H     125      IM1H     H1       HDA3A    0.135000       1.00800           0   0.00000       0.00000    
      2484 IM1H     125      IM1H     H2       HDA3A    0.135000       1.00800           0   0.00000       0.00000    
      2485 IM1H     125      IM1H     H3       HDA3A    0.135000       1.00800           0   0.00000       0.00000    
      2486 IM1H     125      IM1H     N1       ND2R5C    1.71300       13.6070           0 -0.803000       1.00000    
      2487 IM1H     125      IM1H     DN1      DRUD     -1.55500      0.400000           0   0.00000       0.00000    
      2488 IM1H     125      IM1H     C2       CD2R5D    1.69890       11.6110           0  -1.08300       1.10000    
      2489 IM1H     125      IM1H     DC2      DRUD     -1.80590      0.400000           0   0.00000       0.00000    
      2490 IM1H     125      IM1H     H4       HDR5D    0.195000       1.00800           0   0.00000       0.00000    
      2491 IM1H     125      IM1H     C3       CD2R5D    1.75890       11.6110           0  -1.08300       1.10000    
      2492 IM1H     125      IM1H     DC3      DRUD     -1.80590      0.400000           0   0.00000       0.00000    
      2493 IM1H     125      IM1H     H5       HDR5D    0.192000       1.00800           0   0.00000       0.00000    
      2494 IM1H     125      IM1H     C4       CD2R5E    1.91950       11.6110           0  -1.25300       1.20000    
      2495 IM1H     125      IM1H     DC4      DRUD     -1.94250      0.400000           0   0.00000       0.00000    
      2496 IM1H     125      IM1H     H6       HDR5E    0.203000       1.00800           0   0.00000       0.00000    
      2497 IM1H     125      IM1H     N2       ND2R5C    1.39800       13.6070           0 -0.803000       1.00000    
      2498 IM1H     125      IM1H     DN2      DRUD     -1.55500      0.400000           0   0.00000       0.00000    
      2499 IM1H     125      IM1H     H7       HDP1A    0.363000       1.00800           0   0.00000       0.00000    
      2500 IM1H     125      IM1H     LPN21    LPD       0.00000       0.00000          -1   0.00000       0.00000    
      2501 IM1H     126      IM1H     C1       CD33F     1.70390       11.6110           0  -1.18100       1.10000    
      2502 IM1H     126      IM1H     DC1      DRUD     -1.88590      0.400000           0   0.00000       0.00000    
      2503 IM1H     126      IM1H     H1       HDA3A    0.135000       1.00800           0   0.00000       0.00000    
      2504 IM1H     126      IM1H     H2       HDA3A    0.135000       1.00800           0   0.00000       0.00000    
      2505 IM1H     126      IM1H     H3       HDA3A    0.135000       1.00800           0   0.00000       0.00000    
      2506 IM1H     126      IM1H     N1       ND2R5C    1.71300       13.6070           0 -0.803000       1.00000    
      2507 IM1H     126      IM1H     DN1      DRUD     -1.55500      0.400000           0   0.00000       0.00000    
      2508 IM1H     126      IM1H     C2       CD2R5D    1.69890       11.6110           0  -1.08300       1.10000    
      2509 IM1H     126      IM1H     DC2      DRUD     -1.80590      0.400000           0   0.00000       0.00000    
      2510 IM1H     126      IM1H     H4       HDR5D    0.195000       1.00800           0   0.00000       0.00000    
      2511 IM1H     126      IM1H     C3       CD2R5D    1.75890       11.6110           0  -1.08300       1.10000    
      2512 IM1H     126      IM1H     DC3      DRUD     -1.80590      0.400000           0   0.00000       0.00000    
      2513 IM1H     126      IM1H     H5       HDR5D    0.192000       1.00800           0   0.00000       0.00000    
      2514 IM1H     126      IM1H     C4       CD2R5E    1.91950       11.6110           0  -1.25300       1.20000    
      2515 IM1H     126      IM1H     DC4      DRUD     -1.94250      0.400000           0   0.00000       0.00000    
      2516 IM1H     126      IM1H     H6       HDR5E    0.203000       1.00800           0   0.00000       0.00000    
      2517 IM1H     126      IM1H     N2       ND2R5C    1.39800       13.6070           0 -0.803000       1.00000    
      2518 IM1H     126      IM1H     DN2      DRUD     -1.55500      0.400000           0   0.00000       0.00000    
      2519 IM1H     126      IM1H     H7       HDP1A    0.363000       1.00800           0   0.00000       0.00000    
      2520 IM1H     126      IM1H     LPN21    LPD       0.00000       0.00000          -1   0.00000       0.00000    
      2521 IM1H     127      IM1H     C1       CD33F     1.70390       11.6110           0  -1.18100       1.10000    
      2522 IM1H     127      IM1H     DC1      DRUD     -1.88590      0.400000           0   0.00000       0.00000    
      2523 IM1H     127      IM1H     H1       HDA3A    0.135000       1.00800           0   0.00000       0.00000    
      2524 IM1H     127      IM1H     H2       HDA3A    0.135000       1.00800           0   0.00000       0.00000    
      2525 IM1H     127      IM1H     H3       HDA3A    0.135000       1.00800           0   0.00000       0.00000    
      2526 IM1H     127      IM1H     N1       ND2R5C    1.71300       13.6070           0 -0.803000       1.00000    
      2527 IM1H     127      IM1H     DN1      DRUD     -1.55500      0.400000           0   0.00000       0.00000    
      2528 IM1H     127      IM1H     C2       CD2R5D    1.69890       11.6110           0  -1.08300       1.10000    
      2529 IM1H     127      IM1H     DC2      DRUD     -1.80590      0.400000           0   0.00000       0.00000    
      2530 IM1H     127      IM1H     H4       HDR5D    0.195000       1.00800           0   0.00000       0.00000    
      2531 IM1H     127      IM1H     C3       CD2R5D    1.75890       11.6110           0  -1.08300       1.10000    
      2532 IM1H     127      IM1H     DC3      DRUD     -1.80590      0.400000           0   0.00000       0.00000    
      2533 IM1H     127      IM1H     H5       HDR5D    0.192000       1.00800           0   0.00000       0.00000    
      2534 IM1H     127      IM1H     C4       CD2R5E    1.91950       11.6110           0  -1.25300       1.20000    
      2535 IM1H     127      IM1H     DC4      DRUD     -1.94250      0.400000           0   0.00000       0.00000    
      2536 IM1H     127      IM1H     H6       HDR5E    0.203000       1.00800           0   0.00000       0.00000    
      2537 IM1H     127      IM1H     N2       ND2R5C    1.39800       13.6070           0 -0.803000       1.00000    
      2538 IM1H     127      IM1H     DN2      DRUD     -1.55500      0.400000           0   0.00000       0.00000    
      2539 IM1H     127      IM1H     H7       HDP1A    0.363000       1.00800           0   0.00000       0.00000    
      2540 IM1H     127      IM1H     LPN21    LPD       0.00000       0.00000          -1   0.00000       0.00000    
      2541 IM1H     128      IM1H     C1       CD33F     1.70390       11.6110           0  -1.18100       1.10000    
      2542 IM1H     128      IM1H     DC1      DRUD     -1.88590      0.400000           0   0.00000       0.00000    
      2543 IM1H     128      IM1H     H1       HDA3A    0.135000       1.00800           0   0.00000       0.00000    
      2544 IM1H     128      IM1H     H2       HDA3A    0.135000       1.00800           0   0.00000       0.00000    
      2545 IM1H     128      IM1H     H3       HDA3A    0.135000       1.00800           0   0.00000       0.00000    
      2546 IM1H     128      IM1H     N1       ND2R5C    1.71300       13.6070           0 -0.803000       1.00000    
      2547 IM1H     128      IM1H     DN1      DRUD     -1.55500      0.400000           0   0.00000       0.00000    
      2548 IM1H     128      IM1H     C2       CD2R5D    1.69890       11.6110           0  -1.08300       1.10000    
      2549 IM1H     128      IM1H     DC2      DRUD     -1.80590      0.400000           0   0.00000       0.00000    
      2550 IM1H     128      IM1H     H4       HDR5D    0.195000       1.00800           0   0.00000       0.00000    
      2551 IM1H     128      IM1H     C3       CD2R5D    1.75890       11.6110           0  -1.08300       1.10000    
      2552 IM1H     128      IM1H     DC3      DRUD     -1.80590      0.400000           0   0.00000       0.00000    
      2553 IM1H     128      IM1H     H5       HDR5D    0.192000       1.00800           0   0.00000       0.00000    
      2554 IM1H     128      IM1H     C4       CD2R5E    1.91950       11.6110           0  -1.25300       1.20000    
      2555 IM1H     128      IM1H     DC4      DRUD     -1.94250      0.400000           0   0.00000       0.00000    
      2556 IM1H     128      IM1H     H6       HDR5E    0.203000       1.00800           0   0.00000       0.00000    
      2557 IM1H     128      IM1H     N2       ND2R5C    1.39800       13.6070           0 -0.803000       1.00000    
      2558 IM1H     128      IM1H     DN2      DRUD     -1.55500      0.400000           0   0.00000       0.00000    
      2559 IM1H     128      IM1H     H7       HDP1A    0.363000       1.00800           0   0.00000       0.00000    
      2560 IM1H     128      IM1H     LPN21    LPD       0.00000       0.00000          -1   0.00000       0.00000    
      2561 IM1H     129      IM1H     C1       CD33F     1.70390       11.6110           0  -1.18100       1.10000    
      2562 IM1H     129      IM1H     DC1      DRUD     -1.88590      0.400000           0   0.00000       0.00000    
      2563 IM1H     129      IM1H     H1       HDA3A    0.135000       1.00800           0   0.00000       0.00000    
      2564 IM1H     129      IM1H     H2       HDA3A    0.135000       1.00800           0   0.00000       0.00000    
      2565 IM1H     129      IM1H     H3       HDA3A    0.135000       1.00800           0   0.00000       0.00000    
      2566 IM1H     129      IM1H     N1       ND2R5C    1.71300       13.6070           0 -0.803000       1.00000    
      2567 IM1H     129      IM1H     DN1      DRUD     -1.55500      0.400000           0   0.00000       0.00000    
      2568 IM1H     129      IM1H     C2       CD2R5D    1.69890       11.6110           0  -1.08300       1.10000    
      2569 IM1H     129      IM1H     DC2      DRUD     -1.80590      0.400000           0   0.00000       0.00000    
      2570 IM1H     129      IM1H     H4       HDR5D    0.195000       1.00800           0   0.00000       0.00000    
      2571 IM1H     129      IM1H     C3       CD2R5D    1.75890       11.6110           0  -1.08300       1.10000    
      2572 IM1H     129      IM1H     DC3      DRUD     -1.80590      0.400000           0   0.00000       0.00000    
      2573 IM1H     129      IM1H     H5       HDR5D    0.192000       1.00800           0   0.00000       0.00000    
      2574 IM1H     129      IM1H     C4       CD2R5E    1.91950       11.6110           0  -1.25300       1.20000    
      2575 IM1H     129      IM1H     DC4      DRUD     -1.94250      0.400000           0   0.00000       0.00000    
      2576 IM1H     129      IM1H     H6       HDR5E    0.203000       1.00800           0   0.00000       0.00000    
      2577 IM1H     129      IM1H     N2       ND2R5C    1.39800       13.6070           0 -0.803000       1.00000    
      2578 IM1H     129      IM1H     DN2      DRUD     -1.55500      0.400000           0   0.00000       0.00000    
      2579 IM1H     129      IM1H     H7       HDP1A    0.363000       1.00800           0   0.00000       0.00000    
      2580 IM1H     129      IM1H     LPN21    LPD       0.00000       0.00000          -1   0.00000       0.00000    
      2581 IM1H     130      IM1H     C1       CD33F     1.70390       11.6110           0  -1.18100       1.10000    
      2582 IM1H     130      IM1H     DC1      DRUD     -1.88590      0.400000           0   0.00000       0.00000    
      2583 IM1H     130      IM1H     H1       HDA3A    0.135000       1.00800           0   0.00000       0.00000    
      2584 IM1H     130      IM1H     H2       HDA3A    0.135000       1.00800           0   0.00000       0.00000    
      2585 IM1H     130      IM1H     H3       HDA3A    0.135000       1.00800           0   0.00000       0.00000    
      2586 IM1H     130      IM1H     N1       ND2R5C    1.71300       13.6070           0 -0.803000       1.00000    
      2587 IM1H     130      IM1H     DN1      DRUD     -1.55500      0.400000           0   0.00000       0.00000    
      2588 IM1H     130      IM1H     C2       CD2R5D    1.69890       11.6110           0  -1.08300       1.10000    
      2589 IM1H     130      IM1H     DC2      DRUD     -1.80590      0.400000           0   0.00000       0.00000    
      2590 IM1H     130      IM1H     H4       HDR5D    0.195000       1.00800           0   0.00000       0.00000    
      2591 IM1H     130      IM1H     C3       CD2R5D    1.75890       11.6110           0  -1.08300       1.10000    
      2592 IM1H     130      IM1H     DC3      DRUD     -1.80590      0.400000           0   0.00000       0.00000    
      2593 IM1H     130      IM1H     H5       HDR5D    0.192000       1.00800           0   0.00000       0.00000    
      2594 IM1H     130      IM1H     C4       CD2R5E    1.91950       11.6110           0  -1.25300       1.20000    
      2595 IM1H     130      IM1H     DC4      DRUD     -1.94250      0.400000           0   0.00000       0.00000    
      2596 IM1H     130      IM1H     H6       HDR5E    0.203000       1.00800           0   0.00000       0.00000    
      2597 IM1H     130      IM1H     N2       ND2R5C    1.39800       13.6070           0 -0.803000       1.00000    
      2598 IM1H     130      IM1H     DN2      DRUD     -1.55500      0.400000           0   0.00000       0.00000    
      2599 IM1H     130      IM1H     H7       HDP1A    0.363000       1.00800           0   0.00000       0.00000    
      2600 IM1H     130      IM1H     LPN21    LPD       0.00000       0.00000          -1   0.00000       0.00000    
      2601 IM1H     131      IM1H     C1       CD33F     1.70390       11.6110           0  -1.18100       1.10000    
      2602 IM1H     131      IM1H     DC1      DRUD     -1.88590      0.400000           0   0.00000       0.00000    
      2603 IM1H     131      IM1H     H1       HDA3A    0.135000       1.00800           0   0.00000       0.00000    
      2604 IM1H     131      IM1H     H2       HDA3A    0.135000       1.00800           0   0.00000       0.00000    
      2605 IM1H     131      IM1H     H3       HDA3A    0.135000       1.00800           0   0.00000       0.00000    
      2606 IM1H     131      IM1H     N1       ND2R5C    1.71300       13.6070           0 -0.803000       1.00000    
      2607 IM1H     131      IM1H     DN1      DRUD     -1.55500      0.400000           0   0.00000       0.00000    
      2608 IM1H     131      IM1H     C2       CD2R5D    1.69890       11.6110           0  -1.08300       1.10000    
      2609 IM1H     131      IM1H     DC2      DRUD     -1.80590      0.400000           0   0.00000       0.00000    
      2610 IM1H     131      IM1H     H4       HDR5D    0.195000       1.00800           0   0.00000       0.00000    
      2611 IM1H     131      IM1H     C3       CD2R5D    1.75890       11.6110           0  -1.08300       1.10000    
      2612 IM1H     131      IM1H     DC3      DRUD     -1.80590      0.400000           0   0.00000       0.00000    
      2613 IM1H     131      IM1H     H5       HDR5D    0.192000       1.00800           0   0.00000       0.00000    
      2614 IM1H     131      IM1H     C4       CD2R5E    1.91950       11.6110           0  -1.25300       1.20000    
      2615 IM1H     131      IM1H     DC4      DRUD     -1.94250      0.400000           0   0.00000       0.00000    
      2616 IM1H     131      IM1H     H6       HDR5E    0.203000       1.00800           0   0.00000       0.00000    
      2617 IM1H     131      IM1H     N2       ND2R5C    1.39800       13.6070           0 -0.803000       1.00000    
      2618 IM1H     131      IM1H     DN2      DRUD     -1.55500      0.400000           0   0.00000       0.00000    
      2619 IM1H     131      IM1H     H7       HDP1A    0.363000       1.00800           0   0.00000       0.00000    
      2620 IM1H     131      IM1H     LPN21    LPD       0.00000       0.00000          -1   0.00000       0.00000    
      2621 IM1H     132      IM1H     C1       CD33F     1.70390       11.6110           0  -1.18100       1.10000    
      2622 IM1H     132      IM1H     DC1      DRUD     -1.88590      0.400000           0   0.00000       0.00000    
      2623 IM1H     132      IM1H     H1       HDA3A    0.135000       1.00800           0   0.00000       0.00000    
      2624 IM1H     132      IM1H     H2       HDA3A    0.135000       1.00800           0   0.00000       0.00000    
      2625 IM1H     132      IM1H     H3       HDA3A    0.135000       1.00800           0   0.00000       0.00000    
      2626 IM1H     132      IM1H     N1       ND2R5C    1.71300       13.6070           0 -0.803000       1.00000    
      2627 IM1H     132      IM1H     DN1      DRUD     -1.55500      0.400000           0   0.00000       0.00000    
      2628 IM1H     132      IM1H     C2       CD2R5D    1.69890       11.6110           0  -1.08300       1.10000    
      2629 IM1H     132      IM1H     DC2      DRUD     -1.80590      0.400000           0   0.00000       0.00000    
      2630 IM1H     132      IM1H     H4       HDR5D    0.195000       1.00800           0   0.00000       0.00000    
      2631 IM1H     132      IM1H     C3       CD2R5D    1.75890       11.6110           0  -1.08300       1.10000    
      2632 IM1H     132      IM1H     DC3      DRUD     -1.80590      0.400000           0   0.00000       0.00000    
      2633 IM1H     132      IM1H     H5       HDR5D    0.192000       1.00800           0   0.00000       0.00000    
      2634 IM1H     132      IM1H     C4       CD2R5E    1.91950       11.6110           0  -1.25300       1.20000    
      2635 IM1H     132      IM1H     DC4      DRUD     -1.94250      0.400000           0   0.00000       0.00000    
      2636 IM1H     132      IM1H     H6       HDR5E    0.203000       1.00800           0   0.00000       0.00000    
      2637 IM1H     132      IM1H     N2       ND2R5C    1.39800       13.6070           0 -0.803000       1.00000    
      2638 IM1H     132      IM1H     DN2      DRUD     -1.55500      0.400000           0   0.00000       0.00000    
      2639 IM1H     132      IM1H     H7       HDP1A    0.363000       1.00800           0   0.00000       0.00000    
      2640 IM1H     132      IM1H     LPN21    LPD       0.00000       0.00000          -1   0.00000       0.00000    
      2641 IM1H     133      IM1H     C1       CD33F     1.70390       11.6110           0  -1.18100       1.10000    
      2642 IM1H     133      IM1H     DC1      DRUD     -1.88590      0.400000           0   0.00000       0.00000    
      2643 IM1H     133      IM1H     H1       HDA3A    0.135000       1.00800           0   0.00000       0.00000    
      2644 IM1H     133      IM1H     H2       HDA3A    0.135000       1.00800           0   0.00000       0.00000    
      2645 IM1H     133      IM1H     H3       HDA3A    0.135000       1.00800           0   0.00000       0.00000    
      2646 IM1H     133      IM1H     N1       ND2R5C    1.71300       13.6070           0 -0.803000       1.00000    
      2647 IM1H     133      IM1H     DN1      DRUD     -1.55500      0.400000           0   0.00000       0.00000    
      2648 IM1H     133      IM1H     C2       CD2R5D    1.69890       11.6110           0  -1.08300       1.10000    
      2649 IM1H     133      IM1H     DC2      DRUD     -1.80590      0.400000           0   0.00000       0.00000    
      2650 IM1H     133      IM1H     H4       HDR5D    0.195000       1.00800           0   0.00000       0.00000    
      2651 IM1H     133      IM1H     C3       CD2R5D    1.75890       11.6110           0  -1.08300       1.10000    
      2652 IM1H     133      IM1H     DC3      DRUD     -1.80590      0.400000           0   0.00000       0.00000    
      2653 IM1H     133      IM1H     H5       HDR5D    0.192000       1.00800           0   0.00000       0.00000    
      2654 IM1H     133      IM1H     C4       CD2R5E    1.91950       11.6110           0  -1.25300       1.20000    
      2655 IM1H     133      IM1H     DC4      DRUD     -1.94250      0.400000           0   0.00000       0.00000    
      2656 IM1H     133      IM1H     H6       HDR5E    0.203000       1.00800           0   0.00000       0.00000    
      2657 IM1H     133      IM1H     N2       ND2R5C    1.39800       13.6070           0 -0.803000       1.00000    
      2658 IM1H     133      IM1H     DN2      DRUD     -1.55500      0.400000           0   0.00000       0.00000    
      2659 IM1H     133      IM1H     H7       HDP1A    0.363000       1.00800           0   0.00000       0.00000    
      2660 IM1H     133      IM1H     LPN21    LPD       0.00000       0.00000          -1   0.00000       0.00000    
      2661 IM1H     134      IM1H     C1       CD33F     1.70390       11.6110           0  -1.18100       1.10000    
      2662 IM1H     134      IM1H     DC1      DRUD     -1.88590      0.400000           0   0.00000       0.00000    
      2663 IM1H     134      IM1H     H1       HDA3A    0.135000       1.00800           0   0.00000       0.00000    
      2664 IM1H     134      IM1H     H2       HDA3A    0.135000       1.00800           0   0.00000       0.00000    
      2665 IM1H     134      IM1H     H3       HDA3A    0.135000       1.00800           0   0.00000       0.00000    
      2666 IM1H     134      IM1H     N1       ND2R5C    1.71300       13.6070           0 -0.803000       1.00000    
      2667 IM1H     134      IM1H     DN1      DRUD     -1.55500      0.400000           0   0.00000       0.00000    
      2668 IM1H     134      IM1H     C2       CD2R5D    1.69890       11.6110           0  -1.08300       1.10000    
      2669 IM1H     134      IM1H     DC2      DRUD     -1.80590      0.400000           0   0.00000       0.00000    
      2670 IM1H     134      IM1H     H4       HDR5D    0.195000       1.00800           0   0.00000       0.00000    
      2671 IM1H     134      IM1H     C3       CD2R5D    1.75890       11.6110           0  -1.08300       1.10000    
      2672 IM1H     134      IM1H     DC3      DRUD     -1.80590      0.400000           0   0.00000       0.00000    
      2673 IM1H     134      IM1H     H5       HDR5D    0.192000       1.00800           0   0.00000       0.00000    
      2674 IM1H     134      IM1H     C4       CD2R5E    1.91950       11.6110           0  -1.25300       1.20000    
      2675 IM1H     134      IM1H     DC4      DRUD     -1.94250      0.400000           0   0.00000       0.00000    
      2676 IM1H     134      IM1H     H6       HDR5E    0.203000       1.00800           0   0.00000       0.00000    
      2677 IM1H     134      IM1H     N2       ND2R5C    1.39800       13.6070           0 -0.803000       1.00000    
      2678 IM1H     134      IM1H     DN2      DRUD     -1.55500      0.400000           0   0.00000       0.00000    
      2679 IM1H     134      IM1H     H7       HDP1A    0.363000       1.00800           0   0.00000       0.00000    
      2680 IM1H     134      IM1H     LPN21    LPD       0.00000       0.00000          -1   0.00000       0.00000    
      2681 IM1H     135      IM1H     C1       CD33F     1.70390       11.6110           0  -1.18100       1.10000    
      2682 IM1H     135      IM1H     DC1      DRUD     -1.88590      0.400000           0   0.00000       0.00000    
      2683 IM1H     135      IM1H     H1       HDA3A    0.135000       1.00800           0   0.00000       0.00000    
      2684 IM1H     135      IM1H     H2       HDA3A    0.135000       1.00800           0   0.00000       0.00000    
      2685 IM1H     135      IM1H     H3       HDA3A    0.135000       1.00800           0   0.00000       0.00000    
      2686 IM1H     135      IM1H     N1       ND2R5C    1.71300       13.6070           0 -0.803000       1.00000    
      2687 IM1H     135      IM1H     DN1      DRUD     -1.55500      0.400000           0   0.00000       0.00000    
      2688 IM1H     135      IM1H     C2       CD2R5D    1.69890       11.6110           0  -1.08300       1.10000    
      2689 IM1H     135      IM1H     DC2      DRUD     -1.80590      0.400000           0   0.00000       0.00000    
      2690 IM1H     135      IM1H     H4       HDR5D    0.195000       1.00800           0   0.00000       0.00000    
      2691 IM1H     135      IM1H     C3       CD2R5D    1.75890       11.6110           0  -1.08300       1.10000    
      2692 IM1H     135      IM1H     DC3      DRUD     -1.80590      0.400000           0   0.00000       0.00000    
      2693 IM1H     135      IM1H     H5       HDR5D    0.192000       1.00800           0   0.00000       0.00000    
      2694 IM1H     135      IM1H     C4       CD2R5E    1.91950       11.6110           0  -1.25300       1.20000    
      2695 IM1H     135      IM1H     DC4      DRUD     -1.94250      0.400000           0   0.00000       0.00000    
      2696 IM1H     135      IM1H     H6       HDR5E    0.203000       1.00800           0   0.00000       0.00000    
      2697 IM1H     135      IM1H     N2       ND2R5C    1.39800       13.6070           0 -0.803000       1.00000    
      2698 IM1H     135      IM1H     DN2      DRUD     -1.55500      0.400000           0   0.00000       0.00000    
      2699 IM1H     135      IM1H     H7       HDP1A    0.363000       1.00800           0   0.00000       0.00000    
      2700 IM1H     135      IM1H     LPN21    LPD       0.00000       0.00000          -1   0.00000       0.00000    
      2701 BUTA     1        BUTA     C1       CD33A     2.06290       11.6110           0  -1.81190       1.18670    
      2702 BUTA     1        BUTA     DC1      DRUD     -2.33590      0.400000           0   0.00000       0.00000    
      2703 BUTA     1        BUTA     C2       CD32A     2.01970       11.6110           0  -1.59660       1.16930    
      2704 BUTA     1        BUTA     DC2      DRUD     -2.19270      0.400000           0   0.00000       0.00000    
      2705 BUTA     1        BUTA     C3       CD32A     1.90870       11.6110           0  -1.59660       1.16930    
      2706 BUTA     1        BUTA     DC3      DRUD     -2.19270      0.400000           0   0.00000       0.00000    
      2707 BUTA     1        BUTA     C4       CD2O2A    2.36920       11.6110           0  -1.01600      0.899000    
      2708 BUTA     1        BUTA     DC4      DRUD     -1.74920      0.400000           0   0.00000       0.00000    
      2709 BUTA     1        BUTA     O1       OD2C2A    1.45090       15.5994           0 -0.699000       2.39900    
      2710 BUTA     1        BUTA     DO1      DRUD     -1.45090      0.400000           0   0.00000       0.00000    
      2711 BUTA     1        BUTA     O2       OD2C2A    1.45090       15.5994           0 -0.699000       2.39900    
      2712 BUTA     1        BUTA     DO2      DRUD     -1.45090      0.400000           0   0.00000       0.00000    
      2713 BUTA     1        BUTA     H1       HDA3A    0.900000E-01   1.00800           0   0.00000       0.00000    
      2714 BUTA     1        BUTA     H2       HDA3A    0.900000E-01   1.00800           0   0.00000       0.00000    
      2715 BUTA     1        BUTA     H3       HDA3A    0.900000E-01   1.00800           0   0.00000       0.00000    
      2716 BUTA     1        BUTA     H4       HDA2A    0.900000E-01   1.00800           0   0.00000       0.00000    
      2717 BUTA     1        BUTA     H5       HDA2A    0.900000E-01   1.00800           0   0.00000       0.00000    
      2718 BUTA     1        BUTA     H6       HDA2A    0.900000E-01   1.00800           0   0.00000       0.00000    
      2719 BUTA     1        BUTA     H7       HDA2A    0.900000E-01   1.00800           0   0.00000       0.00000    
      2720 BUTA     1        BUTA     H8       DUMH      0.00000       1.00800           0   0.00000       0.00000    
      2721 BUTA     1        BUTA     H9       DUMH      0.00000       1.00800           0   0.00000       0.00000    
      2722 BUTA     1        BUTA     LPO11    LPD     -0.380000       0.00000          -1   0.00000       0.00000    
      2723 BUTA     1        BUTA     LPO12    LPD     -0.380000       0.00000          -1   0.00000       0.00000    
      2724 BUTA     1        BUTA     LPO21    LPD     -0.380000       0.00000          -1   0.00000       0.00000    
      2725 BUTA     1        BUTA     LPO22    LPD     -0.380000       0.00000          -1   0.00000       0.00000    
      2726 BUTA     2        BUTA     C1       CD33A     2.06290       11.6110           0  -1.81190       1.18670    
      2727 BUTA     2        BUTA     DC1      DRUD     -2.33590      0.400000           0   0.00000       0.00000    
      2728 BUTA     2        BUTA     C2       CD32A     2.01970       11.6110           0  -1.59660       1.16930    
      2729 BUTA     2        BUTA     DC2      DRUD     -2.19270      0.400000           0   0.00000       0.00000    
      2730 BUTA     2        BUTA     C3       CD32A     1.90870       11.6110           0  -1.59660       1.16930    
      2731 BUTA     2        BUTA     DC3      DRUD     -2.19270      0.400000           0   0.00000       0.00000    
      2732 BUTA     2        BUTA     C4       CD2O2A    2.36920       11.6110           0  -1.01600      0.899000    
      2733 BUTA     2        BUTA     DC4      DRUD     -1.74920      0.400000           0   0.00000       0.00000    
      2734 BUTA     2        BUTA     O1       OD2C2A    1.45090       15.5994           0 -0.699000       2.39900    
      2735 BUTA     2        BUTA     DO1      DRUD     -1.45090      0.400000           0   0.00000       0.00000    
      2736 BUTA     2        BUTA     O2       OD2C2A    1.45090       15.5994           0 -0.699000       2.39900    
      2737 BUTA     2        BUTA     DO2      DRUD     -1.45090      0.400000           0   0.00000       0.00000    
      2738 BUTA     2        BUTA     H1       HDA3A    0.900000E-01   1.00800           0   0.00000       0.00000    
      2739 BUTA     2        BUTA     H2       HDA3A    0.900000E-01   1.00800           0   0.00000       0.00000    
      2740 BUTA     2        BUTA     H3       HDA3A    0.900000E-01   1.00800           0   0.00000       0.00000    
      2741 BUTA     2        BUTA     H4       HDA2A    0.900000E-01   1.00800           0   0.00000       0.00000    
      2742 BUTA     2        BUTA     H5       HDA2A    0.900000E-01   1.00800           0   0.00000       0.00000    
      2743 BUTA     2        BUTA     H6       HDA2A    0.900000E-01   1.00800           0   0.00000       0.00000    
      2744 BUTA     2        BUTA     H7       HDA2A    0.900000E-01   1.00800           0   0.00000       0.00000    
      2745 BUTA     2        BUTA     H8       DUMH      0.00000       1.00800           0   0.00000       0.00000    
      2746 BUTA     2        BUTA     H9       DUMH      0.00000       1.00800           0   0.00000       0.00000    
      2747 BUTA     2        BUTA     LPO11    LPD     -0.380000       0.00000          -1   0.00000       0.00000    
      2748 BUTA     2        BUTA     LPO12    LPD     -0.380000       0.00000          -1   0.00000       0.00000    
      2749 BUTA     2        BUTA     LPO21    LPD     -0.380000       0.00000          -1   0.00000       0.00000    
      2750 BUTA     2        BUTA     LPO22    LPD     -0.380000       0.00000          -1   0.00000       0.00000    
      2751 BUTA     3        BUTA     C1       CD33A     2.06290       11.6110           0  -1.81190       1.18670    
      2752 BUTA     3        BUTA     DC1      DRUD     -2.33590      0.400000           0   0.00000       0.00000    
      2753 BUTA     3        BUTA     C2       CD32A     2.01970       11.6110           0  -1.59660       1.16930    
      2754 BUTA     3        BUTA     DC2      DRUD     -2.19270      0.400000           0   0.00000       0.00000    
      2755 BUTA     3        BUTA     C3       CD32A     1.90870       11.6110           0  -1.59660       1.16930    
      2756 BUTA     3        BUTA     DC3      DRUD     -2.19270      0.400000           0   0.00000       0.00000    
      2757 BUTA     3        BUTA     C4       CD2O2A    2.36920       11.6110           0  -1.01600      0.899000    
      2758 BUTA     3        BUTA     DC4      DRUD     -1.74920      0.400000           0   0.00000       0.00000    
      2759 BUTA     3        BUTA     O1       OD2C2A    1.45090       15.5994           0 -0.699000       2.39900    
      2760 BUTA     3        BUTA     DO1      DRUD     -1.45090      0.400000           0   0.00000       0.00000    
      2761 BUTA     3        BUTA     O2       OD2C2A    1.45090       15.5994           0 -0.699000       2.39900    
      2762 BUTA     3        BUTA     DO2      DRUD     -1.45090      0.400000           0   0.00000       0.00000    
      2763 BUTA     3        BUTA     H1       HDA3A    0.900000E-01   1.00800           0   0.00000       0.00000    
      2764 BUTA     3        BUTA     H2       HDA3A    0.900000E-01   1.00800           0   0.00000       0.00000    
      2765 BUTA     3        BUTA     H3       HDA3A    0.900000E-01   1.00800           0   0.00000       0.00000    
      2766 BUTA     3        BUTA     H4       HDA2A    0.900000E-01   1.00800           0   0.00000       0.00000    
      2767 BUTA     3        BUTA     H5       HDA2A    0.900000E-01   1.00800           0   0.00000       0.00000    
      2768 BUTA     3        BUTA     H6       HDA2A    0.900000E-01   1.00800           0   0.00000       0.00000    
      2769 BUTA     3        BUTA     H7       HDA2A    0.900000E-01   1.00800           0   0.00000       0.00000    
      2770 BUTA     3        BUTA     H8       DUMH      0.00000       1.00800           0   0.00000       0.00000    
      2771 BUTA     3        BUTA     H9       DUMH      0.00000       1.00800           0   0.00000       0.00000    
      2772 BUTA     3        BUTA     LPO11    LPD     -0.380000       0.00000          -1   0.00000       0.00000    
      2773 BUTA     3        BUTA     LPO12    LPD     -0.380000       0.00000          -1   0.00000       0.00000    
      2774 BUTA     3        BUTA     LPO21    LPD     -0.380000       0.00000          -1   0.00000       0.00000    
      2775 BUTA     3        BUTA     LPO22    LPD     -0.380000       0.00000          -1   0.00000       0.00000    
      2776 BUTA     4        BUTA     C1       CD33A     2.06290       11.6110           0  -1.81190       1.18670    
      2777 BUTA     4        BUTA     DC1      DRUD     -2.33590      0.400000           0   0.00000       0.00000    
      2778 BUTA     4        BUTA     C2       CD32A     2.01970       11.6110           0  -1.59660       1.16930    
      2779 BUTA     4        BUTA     DC2      DRUD     -2.19270      0.400000           0   0.00000       0.00000    
      2780 BUTA     4        BUTA     C3       CD32A     1.90870       11.6110           0  -1.59660       1.16930    
      2781 BUTA     4        BUTA     DC3      DRUD     -2.19270      0.400000           0   0.00000       0.00000    
      2782 BUTA     4        BUTA     C4       CD2O2A    2.36920       11.6110           0  -1.01600      0.899000    
      2783 BUTA     4        BUTA     DC4      DRUD     -1.74920      0.400000           0   0.00000       0.00000    
      2784 BUTA     4        BUTA     O1       OD2C2A    1.45090       15.5994           0 -0.699000       2.39900    
      2785 BUTA     4        BUTA     DO1      DRUD     -1.45090      0.400000           0   0.00000       0.00000    
      2786 BUTA     4        BUTA     O2       OD2C2A    1.45090       15.5994           0 -0.699000       2.39900    
      2787 BUTA     4        BUTA     DO2      DRUD     -1.45090      0.400000           0   0.00000       0.00000    
      2788 BUTA     4        BUTA     H1       HDA3A    0.900000E-01   1.00800           0   0.00000       0.00000    
      2789 BUTA     4        BUTA     H2       HDA3A    0.900000E-01   1.00800           0   0.00000       0.00000    
      2790 BUTA     4        BUTA     H3       HDA3A    0.900000E-01   1.00800           0   0.00000       0.00000    
      2791 BUTA     4        BUTA     H4       HDA2A    0.900000E-01   1.00800           0   0.00000       0.00000    
      2792 BUTA     4        BUTA     H5       HDA2A    0.900000E-01   1.00800           0   0.00000       0.00000    
      2793 BUTA     4        BUTA     H6       HDA2A    0.900000E-01   1.00800           0   0.00000       0.00000    
      2794 BUTA     4        BUTA     H7       HDA2A    0.900000E-01   1.00800           0   0.00000       0.00000    
      2795 BUTA     4        BUTA     H8       DUMH      0.00000       1.00800           0   0.00000       0.00000    
      2796 BUTA     4        BUTA     H9       DUMH      0.00000       1.00800           0   0.00000       0.00000    
      2797 BUTA     4        BUTA     LPO11    LPD     -0.380000       0.00000          -1   0.00000       0.00000    
      2798 BUTA     4        BUTA     LPO12    LPD     -0.380000       0.00000          -1   0.00000       0.00000    
      2799 BUTA     4        BUTA     LPO21    LPD     -0.380000       0.00000          -1   0.00000       0.00000    
      2800 BUTA     4        BUTA     LPO22    LPD     -0.380000       0.00000          -1   0.00000       0.00000    
      2801 BUTA     5        BUTA     C1       CD33A     2.06290       11.6110           0  -1.81190       1.18670    
      2802 BUTA     5        BUTA     DC1      DRUD     -2.33590      0.400000           0   0.00000       0.00000    
      2803 BUTA     5        BUTA     C2       CD32A     2.01970       11.6110           0  -1.59660       1.16930    
      2804 BUTA     5        BUTA     DC2      DRUD     -2.19270      0.400000           0   0.00000       0.00000    
      2805 BUTA     5        BUTA     C3       CD32A     1.90870       11.6110           0  -1.59660       1.16930    
      2806 BUTA     5        BUTA     DC3      DRUD     -2.19270      0.400000           0   0.00000       0.00000    
      2807 BUTA     5        BUTA     C4       CD2O2A    2.36920       11.6110           0  -1.01600      0.899000    
      2808 BUTA     5        BUTA     DC4      DRUD     -1.74920      0.400000           0   0.00000       0.00000    
      2809 BUTA     5        BUTA     O1       OD2C2A    1.45090       15.5994           0 -0.699000       2.39900    
      2810 BUTA     5        BUTA     DO1      DRUD     -1.45090      0.400000           0   0.00000       0.00000    
      2811 BUTA     5        BUTA     O2       OD2C2A    1.45090       15.5994           0 -0.699000       2.39900    
      2812 BUTA     5        BUTA     DO2      DRUD     -1.45090      0.400000           0   0.00000       0.00000    
      2813 BUTA     5        BUTA     H1       HDA3A    0.900000E-01   1.00800           0   0.00000       0.00000    
      2814 BUTA     5        BUTA     H2       HDA3A    0.900000E-01   1.00800           0   0.00000       0.00000    
      2815 BUTA     5        BUTA     H3       HDA3A    0.900000E-01   1.00800           0   0.00000       0.00000    
      2816 BUTA     5        BUTA     H4       HDA2A    0.900000E-01   1.00800           0   0.00000       0.00000    
      2817 BUTA     5        BUTA     H5       HDA2A    0.900000E-01   1.00800           0   0.00000       0.00000    
      2818 BUTA     5        BUTA     H6       HDA2A    0.900000E-01   1.00800           0   0.00000       0.00000    
      2819 BUTA     5        BUTA     H7       HDA2A    0.900000E-01   1.00800           0   0.00000       0.00000    
      2820 BUTA     5        BUTA     H8       DUMH      0.00000       1.00800           0   0.00000       0.00000    
      2821 BUTA     5        BUTA     H9       DUMH      0.00000       1.00800           0   0.00000       0.00000    
      2822 BUTA     5        BUTA     LPO11    LPD     -0.380000       0.00000          -1   0.00000       0.00000    
      2823 BUTA     5        BUTA     LPO12    LPD     -0.380000       0.00000          -1   0.00000       0.00000    
      2824 BUTA     5        BUTA     LPO21    LPD     -0.380000       0.00000          -1   0.00000       0.00000    
      2825 BUTA     5        BUTA     LPO22    LPD     -0.380000       0.00000          -1   0.00000       0.00000    
      2826 BUTA     6        BUTA     C1       CD33A     2.06290       11.6110           0  -1.81190       1.18670    
      2827 BUTA     6        BUTA     DC1      DRUD     -2.33590      0.400000           0   0.00000       0.00000    
      2828 BUTA     6        BUTA     C2       CD32A     2.01970       11.6110           0  -1.59660       1.16930    
      2829 BUTA     6        BUTA     DC2      DRUD     -2.19270      0.400000           0   0.00000       0.00000    
      2830 BUTA     6        BUTA     C3       CD32A     1.90870       11.6110           0  -1.59660       1.16930    
      2831 BUTA     6        BUTA     DC3      DRUD     -2.19270      0.400000           0   0.00000       0.00000    
      2832 BUTA     6        BUTA     C4       CD2O2A    2.36920       11.6110           0  -1.01600      0.899000    
      2833 BUTA     6        BUTA     DC4      DRUD     -1.74920      0.400000           0   0.00000       0.00000    
      2834 BUTA     6        BUTA     O1       OD2C2A    1.45090       15.5994           0 -0.699000       2.39900    
      2835 BUTA     6        BUTA     DO1      DRUD     -1.45090      0.400000           0   0.00000       0.00000    
      2836 BUTA     6        BUTA     O2       OD2C2A    1.45090       15.5994           0 -0.699000       2.39900    
      2837 BUTA     6        BUTA     DO2      DRUD     -1.45090      0.400000           0   0.00000       0.00000    
      2838 BUTA     6        BUTA     H1       HDA3A    0.900000E-01   1.00800           0   0.00000       0.00000    
      2839 BUTA     6        BUTA     H2       HDA3A    0.900000E-01   1.00800           0   0.00000       0.00000    
      2840 BUTA     6        BUTA     H3       HDA3A    0.900000E-01   1.00800           0   0.00000       0.00000    
      2841 BUTA     6        BUTA     H4       HDA2A    0.900000E-01   1.00800           0   0.00000       0.00000    
      2842 BUTA     6        BUTA     H5       HDA2A    0.900000E-01   1.00800           0   0.00000       0.00000    
      2843 BUTA     6        BUTA     H6       HDA2A    0.900000E-01   1.00800           0   0.00000       0.00000    
      2844 BUTA     6        BUTA     H7       HDA2A    0.900000E-01   1.00800           0   0.00000       0.00000    
      2845 BUTA     6        BUTA     H8       DUMH      0.00000       1.00800           0   0.00000       0.00000    
      2846 BUTA     6        BUTA     H9       DUMH      0.00000       1.00800           0   0.00000       0.00000    
      2847 BUTA     6        BUTA     LPO11    LPD     -0.380000       0.00000          -1   0.00000       0.00000    
      2848 BUTA     6        BUTA     LPO12    LPD     -0.380000       0.00000          -1   0.00000       0.00000    
      2849 BUTA     6        BUTA     LPO21    LPD     -0.380000       0.00000          -1   0.00000       0.00000    
      2850 BUTA     6        BUTA     LPO22    LPD     -0.380000       0.00000          -1   0.00000       0.00000    
      2851 BUTA     7        BUTA     C1       CD33A     2.06290       11.6110           0  -1.81190       1.18670    
      2852 BUTA     7        BUTA     DC1      DRUD     -2.33590      0.400000           0   0.00000       0.00000    
      2853 BUTA     7        BUTA     C2       CD32A     2.01970       11.6110           0  -1.59660       1.16930    
      2854 BUTA     7        BUTA     DC2      DRUD     -2.19270      0.400000           0   0.00000       0.00000    
      2855 BUTA     7        BUTA     C3       CD32A     1.90870       11.6110           0  -1.59660       1.16930    
      2856 BUTA     7        BUTA     DC3      DRUD     -2.19270      0.400000           0   0.00000       0.00000    
      2857 BUTA     7        BUTA     C4       CD2O2A    2.36920       11.6110           0  -1.01600      0.899000    
      2858 BUTA     7        BUTA     DC4      DRUD     -1.74920      0.400000           0   0.00000       0.00000    
      2859 BUTA     7        BUTA     O1       OD2C2A    1.45090       15.5994           0 -0.699000       2.39900    
      2860 BUTA     7        BUTA     DO1      DRUD     -1.45090      0.400000           0   0.00000       0.00000    
      2861 BUTA     7        BUTA     O2       OD2C2A    1.45090       15.5994           0 -0.699000       2.39900    
      2862 BUTA     7        BUTA     DO2      DRUD     -1.45090      0.400000           0   0.00000       0.00000    
      2863 BUTA     7        BUTA     H1       HDA3A    0.900000E-01   1.00800           0   0.00000       0.00000    
      2864 BUTA     7        BUTA     H2       HDA3A    0.900000E-01   1.00800           0   0.00000       0.00000    
      2865 BUTA     7        BUTA     H3       HDA3A    0.900000E-01   1.00800           0   0.00000       0.00000    
      2866 BUTA     7        BUTA     H4       HDA2A    0.900000E-01   1.00800           0   0.00000       0.00000    
      2867 BUTA     7        BUTA     H5       HDA2A    0.900000E-01   1.00800           0   0.00000       0.00000    
      2868 BUTA     7        BUTA     H6       HDA2A    0.900000E-01   1.00800           0   0.00000       0.00000    
      2869 BUTA     7        BUTA     H7       HDA2A    0.900000E-01   1.00800           0   0.00000       0.00000    
      2870 BUTA     7        BUTA     H8       DUMH      0.00000       1.00800           0   0.00000       0.00000    
      2871 BUTA     7        BUTA     H9       DUMH      0.00000       1.00800           0   0.00000       0.00000    
      2872 BUTA     7        BUTA     LPO11    LPD     -0.380000       0.00000          -1   0.00000       0.00000    
      2873 BUTA     7        BUTA     LPO12    LPD     -0.380000       0.00000          -1   0.00000       0.00000    
      2874 BUTA     7        BUTA     LPO21    LPD     -0.380000       0.00000          -1   0.00000       0.00000    
      2875 BUTA     7        BUTA     LPO22    LPD     -0.380000       0.00000          -1   0.00000       0.00000    
      2876 BUTA     8        BUTA     C1       CD33A     2.06290       11.6110           0  -1.81190       1.18670    
      2877 BUTA     8        BUTA     DC1      DRUD     -2.33590      0.400000           0   0.00000       0.00000    
      2878 BUTA     8        BUTA     C2       CD32A     2.01970       11.6110           0  -1.59660       1.16930    
      2879 BUTA     8        BUTA     DC2      DRUD     -2.19270      0.400000           0   0.00000       0.00000    
      2880 BUTA     8        BUTA     C3       CD32A     1.90870       11.6110           0  -1.59660       1.16930    
      2881 BUTA     8        BUTA     DC3      DRUD     -2.19270      0.400000           0   0.00000       0.00000    
      2882 BUTA     8        BUTA     C4       CD2O2A    2.36920       11.6110           0  -1.01600      0.899000    
      2883 BUTA     8        BUTA     DC4      DRUD     -1.74920      0.400000           0   0.00000       0.00000    
      2884 BUTA     8        BUTA     O1       OD2C2A    1.45090       15.5994           0 -0.699000       2.39900    
      2885 BUTA     8        BUTA     DO1      DRUD     -1.45090      0.400000           0   0.00000       0.00000    
      2886 BUTA     8        BUTA     O2       OD2C2A    1.45090       15.5994           0 -0.699000       2.39900    
      2887 BUTA     8        BUTA     DO2      DRUD     -1.45090      0.400000           0   0.00000       0.00000    
      2888 BUTA     8        BUTA     H1       HDA3A    0.900000E-01   1.00800           0   0.00000       0.00000    
      2889 BUTA     8        BUTA     H2       HDA3A    0.900000E-01   1.00800           0   0.00000       0.00000    
      2890 BUTA     8        BUTA     H3       HDA3A    0.900000E-01   1.00800           0   0.00000       0.00000    
      2891 BUTA     8        BUTA     H4       HDA2A    0.900000E-01   1.00800           0   0.00000       0.00000    
      2892 BUTA     8        BUTA     H5       HDA2A    0.900000E-01   1.00800           0   0.00000       0.00000    
      2893 BUTA     8        BUTA     H6       HDA2A    0.900000E-01   1.00800           0   0.00000       0.00000    
      2894 BUTA     8        BUTA     H7       HDA2A    0.900000E-01   1.00800           0   0.00000       0.00000    
      2895 BUTA     8        BUTA     H8       DUMH      0.00000       1.00800           0   0.00000       0.00000    
      2896 BUTA     8        BUTA     H9       DUMH      0.00000       1.00800           0   0.00000       0.00000    
      2897 BUTA     8        BUTA     LPO11    LPD     -0.380000       0.00000          -1   0.00000       0.00000    
      2898 BUTA     8        BUTA     LPO12    LPD     -0.380000       0.00000          -1   0.00000       0.00000    
      2899 BUTA     8        BUTA     LPO21    LPD     -0.380000       0.00000          -1   0.00000       0.00000    
      2900 BUTA     8        BUTA     LPO22    LPD     -0.380000       0.00000          -1   0.00000       0.00000    
      2901 BUTA     9        BUTA     C1       CD33A     2.06290       11.6110           0  -1.81190       1.18670    
      2902 BUTA     9        BUTA     DC1      DRUD     -2.33590      0.400000           0   0.00000       0.00000    
      2903 BUTA     9        BUTA     C2       CD32A     2.01970       11.6110           0  -1.59660       1.16930    
      2904 BUTA     9        BUTA     DC2      DRUD     -2.19270      0.400000           0   0.00000       0.00000    
      2905 BUTA     9        BUTA     C3       CD32A     1.90870       11.6110           0  -1.59660       1.16930    
      2906 BUTA     9        BUTA     DC3      DRUD     -2.19270      0.400000           0   0.00000       0.00000    
      2907 BUTA     9        BUTA     C4       CD2O2A    2.36920       11.6110           0  -1.01600      0.899000    
      2908 BUTA     9        BUTA     DC4      DRUD     -1.74920      0.400000           0   0.00000       0.00000    
      2909 BUTA     9        BUTA     O1       OD2C2A    1.45090       15.5994           0 -0.699000       2.39900    
      2910 BUTA     9        BUTA     DO1      DRUD     -1.45090      0.400000           0   0.00000       0.00000    
      2911 BUTA     9        BUTA     O2       OD2C2A    1.45090       15.5994           0 -0.699000       2.39900    
      2912 BUTA     9        BUTA     DO2      DRUD     -1.45090      0.400000           0   0.00000       0.00000    
      2913 BUTA     9        BUTA     H1       HDA3A    0.900000E-01   1.00800           0   0.00000       0.00000    
      2914 BUTA     9        BUTA     H2       HDA3A    0.900000E-01   1.00800           0   0.00000       0.00000    
      2915 BUTA     9        BUTA     H3       HDA3A    0.900000E-01   1.00800           0   0.00000       0.00000    
      2916 BUTA     9        BUTA     H4       HDA2A    0.900000E-01   1.00800           0   0.00000       0.00000    
      2917 BUTA     9        BUTA     H5       HDA2A    0.900000E-01   1.00800           0   0.00000       0.00000    
      2918 BUTA     9        BUTA     H6       HDA2A    0.900000E-01   1.00800           0   0.00000       0.00000    
      2919 BUTA     9        BUTA     H7       HDA2A    0.900000E-01   1.00800           0   0.00000       0.00000    
      2920 BUTA     9        BUTA     H8       DUMH      0.00000       1.00800           0   0.00000       0.00000    
      2921 BUTA     9        BUTA     H9       DUMH      0.00000       1.00800           0   0.00000       0.00000    
      2922 BUTA     9        BUTA     LPO11    LPD     -0.380000       0.00000          -1   0.00000       0.00000    
      2923 BUTA     9        BUTA     LPO12    LPD     -0.380000       0.00000          -1   0.00000       0.00000    
      2924 BUTA     9        BUTA     LPO21    LPD     -0.380000       0.00000          -1   0.00000       0.00000    
      2925 BUTA     9        BUTA     LPO22    LPD     -0.380000       0.00000          -1   0.00000       0.00000    
      2926 BUTA     10       BUTA     C1       CD33A     2.06290       11.6110           0  -1.81190       1.18670    
      2927 BUTA     10       BUTA     DC1      DRUD     -2.33590      0.400000           0   0.00000       0.00000    
      2928 BUTA     10       BUTA     C2       CD32A     2.01970       11.6110           0  -1.59660       1.16930    
      2929 BUTA     10       BUTA     DC2      DRUD     -2.19270      0.400000           0   0.00000       0.00000    
      2930 BUTA     10       BUTA     C3       CD32A     1.90870       11.6110           0  -1.59660       1.16930    
      2931 BUTA     10       BUTA     DC3      DRUD     -2.19270      0.400000           0   0.00000       0.00000    
      2932 BUTA     10       BUTA     C4       CD2O2A    2.36920       11.6110           0  -1.01600      0.899000    
      2933 BUTA     10       BUTA     DC4      DRUD     -1.74920      0.400000           0   0.00000       0.00000    
      2934 BUTA     10       BUTA     O1       OD2C2A    1.45090       15.5994           0 -0.699000       2.39900    
      2935 BUTA     10       BUTA     DO1      DRUD     -1.45090      0.400000           0   0.00000       0.00000    
      2936 BUTA     10       BUTA     O2       OD2C2A    1.45090       15.5994           0 -0.699000       2.39900    
      2937 BUTA     10       BUTA     DO2      DRUD     -1.45090      0.400000           0   0.00000       0.00000    
      2938 BUTA     10       BUTA     H1       HDA3A    0.900000E-01   1.00800           0   0.00000       0.00000    
      2939 BUTA     10       BUTA     H2       HDA3A    0.900000E-01   1.00800           0   0.00000       0.00000    
      2940 BUTA     10       BUTA     H3       HDA3A    0.900000E-01   1.00800           0   0.00000       0.00000    
      2941 BUTA     10       BUTA     H4       HDA2A    0.900000E-01   1.00800           0   0.00000       0.00000    
      2942 BUTA     10       BUTA     H5       HDA2A    0.900000E-01   1.00800           0   0.00000       0.00000    
      2943 BUTA     10       BUTA     H6       HDA2A    0.900000E-01   1.00800           0   0.00000       0.00000    
      2944 BUTA     10       BUTA     H7       HDA2A    0.900000E-01   1.00800           0   0.00000       0.00000    
      2945 BUTA     10       BUTA     H8       DUMH      0.00000       1.00800           0   0.00000       0.00000    
      2946 BUTA     10       BUTA     H9       DUMH      0.00000       1.00800           0   0.00000       0.00000    
      2947 BUTA     10       BUTA     LPO11    LPD     -0.380000       0.00000          -1   0.00000       0.00000    
      2948 BUTA     10       BUTA     LPO12    LPD     -0.380000       0.00000          -1   0.00000       0.00000    
      2949 BUTA     10       BUTA     LPO21    LPD     -0.380000       0.00000          -1   0.00000       0.00000    
      2950 BUTA     10       BUTA     LPO22    LPD     -0.380000       0.00000          -1   0.00000       0.00000    
      2951 BUTA     11       BUTA     C1       CD33A     2.06290       11.6110           0  -1.81190       1.18670    
      2952 BUTA     11       BUTA     DC1      DRUD     -2.33590      0.400000           0   0.00000       0.00000    
      2953 BUTA     11       BUTA     C2       CD32A     2.01970       11.6110           0  -1.59660       1.16930    
      2954 BUTA     11       BUTA     DC2      DRUD     -2.19270      0.400000           0   0.00000       0.00000    
      2955 BUTA     11       BUTA     C3       CD32A     1.90870       11.6110           0  -1.59660       1.16930    
      2956 BUTA     11       BUTA     DC3      DRUD     -2.19270      0.400000           0   0.00000       0.00000    
      2957 BUTA     11       BUTA     C4       CD2O2A    2.36920       11.6110           0  -1.01600      0.899000    
      2958 BUTA     11       BUTA     DC4      DRUD     -1.74920      0.400000           0   0.00000       0.00000    
      2959 BUTA     11       BUTA     O1       OD2C2A    1.45090       15.5994           0 -0.699000       2.39900    
      2960 BUTA     11       BUTA     DO1      DRUD     -1.45090      0.400000           0   0.00000       0.00000    
      2961 BUTA     11       BUTA     O2       OD2C2A    1.45090       15.5994           0 -0.699000       2.39900    
      2962 BUTA     11       BUTA     DO2      DRUD     -1.45090      0.400000           0   0.00000       0.00000    
      2963 BUTA     11       BUTA     H1       HDA3A    0.900000E-01   1.00800           0   0.00000       0.00000    
      2964 BUTA     11       BUTA     H2       HDA3A    0.900000E-01   1.00800           0   0.00000       0.00000    
      2965 BUTA     11       BUTA     H3       HDA3A    0.900000E-01   1.00800           0   0.00000       0.00000    
      2966 BUTA     11       BUTA     H4       HDA2A    0.900000E-01   1.00800           0   0.00000       0.00000    
      2967 BUTA     11       BUTA     H5       HDA2A    0.900000E-01   1.00800           0   0.00000       0.00000    
      2968 BUTA     11       BUTA     H6       HDA2A    0.900000E-01   1.00800           0   0.00000       0.00000    
      2969 BUTA     11       BUTA     H7       HDA2A    0.900000E-01   1.00800           0   0.00000       0.00000    
      2970 BUTA     11       BUTA     H8       DUMH      0.00000       1.00800           0   0.00000       0.00000    
      2971 BUTA     11       BUTA     H9       DUMH      0.00000       1.00800           0   0.00000       0.00000    
      2972 BUTA     11       BUTA     LPO11    LPD     -0.380000       0.00000          -1   0.00000       0.00000    
      2973 BUTA     11       BUTA     LPO12    LPD     -0.380000       0.00000          -1   0.00000       0.00000    
      2974 BUTA     11       BUTA     LPO21    LPD     -0.380000       0.00000          -1   0.00000       0.00000    
      2975 BUTA     11       BUTA     LPO22    LPD     -0.380000       0.00000          -1   0.00000       0.00000    
      2976 BUTA     12       BUTA     C1       CD33A     2.06290       11.6110           0  -1.81190       1.18670    
      2977 BUTA     12       BUTA     DC1      DRUD     -2.33590      0.400000           0   0.00000       0.00000    
      2978 BUTA     12       BUTA     C2       CD32A     2.01970       11.6110           0  -1.59660       1.16930    
      2979 BUTA     12       BUTA     DC2      DRUD     -2.19270      0.400000           0   0.00000       0.00000    
      2980 BUTA     12       BUTA     C3       CD32A     1.90870       11.6110           0  -1.59660       1.16930    
      2981 BUTA     12       BUTA     DC3      DRUD     -2.19270      0.400000           0   0.00000       0.00000    
      2982 BUTA     12       BUTA     C4       CD2O2A    2.36920       11.6110           0  -1.01600      0.899000    
      2983 BUTA     12       BUTA     DC4      DRUD     -1.74920      0.400000           0   0.00000       0.00000    
      2984 BUTA     12       BUTA     O1       OD2C2A    1.45090       15.5994           0 -0.699000       2.39900    
      2985 BUTA     12       BUTA     DO1      DRUD     -1.45090      0.400000           0   0.00000       0.00000    
      2986 BUTA     12       BUTA     O2       OD2C2A    1.45090       15.5994           0 -0.699000       2.39900    
      2987 BUTA     12       BUTA     DO2      DRUD     -1.45090      0.400000           0   0.00000       0.00000    
      2988 BUTA     12       BUTA     H1       HDA3A    0.900000E-01   1.00800           0   0.00000       0.00000    
      2989 BUTA     12       BUTA     H2       HDA3A    0.900000E-01   1.00800           0   0.00000       0.00000    
      2990 BUTA     12       BUTA     H3       HDA3A    0.900000E-01   1.00800           0   0.00000       0.00000    
      2991 BUTA     12       BUTA     H4       HDA2A    0.900000E-01   1.00800           0   0.00000       0.00000    
      2992 BUTA     12       BUTA     H5       HDA2A    0.900000E-01   1.00800           0   0.00000       0.00000    
      2993 BUTA     12       BUTA     H6       HDA2A    0.900000E-01   1.00800           0   0.00000       0.00000    
      2994 BUTA     12       BUTA     H7       HDA2A    0.900000E-01   1.00800           0   0.00000       0.00000    
      2995 BUTA     12       BUTA     H8       DUMH      0.00000       1.00800           0   0.00000       0.00000    
      2996 BUTA     12       BUTA     H9       DUMH      0.00000       1.00800           0   0.00000       0.00000    
      2997 BUTA     12       BUTA     LPO11    LPD     -0.380000       0.00000          -1   0.00000       0.00000    
      2998 BUTA     12       BUTA     LPO12    LPD     -0.380000       0.00000          -1   0.00000       0.00000    
      2999 BUTA     12       BUTA     LPO21    LPD     -0.380000       0.00000          -1   0.00000       0.00000    
      3000 BUTA     12       BUTA     LPO22    LPD     -0.380000       0.00000          -1   0.00000       0.00000    
      3001 BUTA     13       BUTA     C1       CD33A     2.06290       11.6110           0  -1.81190       1.18670    
      3002 BUTA     13       BUTA     DC1      DRUD     -2.33590      0.400000           0   0.00000       0.00000    
      3003 BUTA     13       BUTA     C2       CD32A     2.01970       11.6110           0  -1.59660       1.16930    
      3004 BUTA     13       BUTA     DC2      DRUD     -2.19270      0.400000           0   0.00000       0.00000    
      3005 BUTA     13       BUTA     C3       CD32A     1.90870       11.6110           0  -1.59660       1.16930    
      3006 BUTA     13       BUTA     DC3      DRUD     -2.19270      0.400000           0   0.00000       0.00000    
      3007 BUTA     13       BUTA     C4       CD2O2A    2.36920       11.6110           0  -1.01600      0.899000    
      3008 BUTA     13       BUTA     DC4      DRUD     -1.74920      0.400000           0   0.00000       0.00000    
      3009 BUTA     13       BUTA     O1       OD2C2A    1.45090       15.5994           0 -0.699000       2.39900    
      3010 BUTA     13       BUTA     DO1      DRUD     -1.45090      0.400000           0   0.00000       0.00000    
      3011 BUTA     13       BUTA     O2       OD2C2A    1.45090       15.5994           0 -0.699000       2.39900    
      3012 BUTA     13       BUTA     DO2      DRUD     -1.45090      0.400000           0   0.00000       0.00000    
      3013 BUTA     13       BUTA     H1       HDA3A    0.900000E-01   1.00800           0   0.00000       0.00000    
      3014 BUTA     13       BUTA     H2       HDA3A    0.900000E-01   1.00800           0   0.00000       0.00000    
      3015 BUTA     13       BUTA     H3       HDA3A    0.900000E-01   1.00800           0   0.00000       0.00000    
      3016 BUTA     13       BUTA     H4       HDA2A    0.900000E-01   1.00800           0   0.00000       0.00000    
      3017 BUTA     13       BUTA     H5       HDA2A    0.900000E-01   1.00800           0   0.00000       0.00000    
      3018 BUTA     13       BUTA     H6       HDA2A    0.900000E-01   1.00800           0   0.00000       0.00000    
      3019 BUTA     13       BUTA     H7       HDA2A    0.900000E-01   1.00800           0   0.00000       0.00000    
      3020 BUTA     13       BUTA     H8       DUMH      0.00000       1.00800           0   0.00000       0.00000    
      3021 BUTA     13       BUTA     H9       DUMH      0.00000       1.00800           0   0.00000       0.00000    
      3022 BUTA     13       BUTA     LPO11    LPD     -0.380000       0.00000          -1   0.00000       0.00000    
      3023 BUTA     13       BUTA     LPO12    LPD     -0.380000       0.00000          -1   0.00000       0.00000    
      3024 BUTA     13       BUTA     LPO21    LPD     -0.380000       0.00000          -1   0.00000       0.00000    
      3025 BUTA     13       BUTA     LPO22    LPD     -0.380000       0.00000          -1   0.00000       0.00000    
      3026 BUTA     14       BUTA     C1       CD33A     2.06290       11.6110           0  -1.81190       1.18670    
      3027 BUTA     14       BUTA     DC1      DRUD     -2.33590      0.400000           0   0.00000       0.00000    
      3028 BUTA     14       BUTA     C2       CD32A     2.01970       11.6110           0  -1.59660       1.16930    
      3029 BUTA     14       BUTA     DC2      DRUD     -2.19270      0.400000           0   0.00000       0.00000    
      3030 BUTA     14       BUTA     C3       CD32A     1.90870       11.6110           0  -1.59660       1.16930    
      3031 BUTA     14       BUTA     DC3      DRUD     -2.19270      0.400000           0   0.00000       0.00000    
      3032 BUTA     14       BUTA     C4       CD2O2A    2.36920       11.6110           0  -1.01600      0.899000    
      3033 BUTA     14       BUTA     DC4      DRUD     -1.74920      0.400000           0   0.00000       0.00000    
      3034 BUTA     14       BUTA     O1       OD2C2A    1.45090       15.5994           0 -0.699000       2.39900    
      3035 BUTA     14       BUTA     DO1      DRUD     -1.45090      0.400000           0   0.00000       0.00000    
      3036 BUTA     14       BUTA     O2       OD2C2A    1.45090       15.5994           0 -0.699000       2.39900    
      3037 BUTA     14       BUTA     DO2      DRUD     -1.45090      0.400000           0   0.00000       0.00000    
      3038 BUTA     14       BUTA     H1       HDA3A    0.900000E-01   1.00800           0   0.00000       0.00000    
      3039 BUTA     14       BUTA     H2       HDA3A    0.900000E-01   1.00800           0   0.00000       0.00000    
      3040 BUTA     14       BUTA     H3       HDA3A    0.900000E-01   1.00800           0   0.00000       0.00000    
      3041 BUTA     14       BUTA     H4       HDA2A    0.900000E-01   1.00800           0   0.00000       0.00000    
      3042 BUTA     14       BUTA     H5       HDA2A    0.900000E-01   1.00800           0   0.00000       0.00000    
      3043 BUTA     14       BUTA     H6       HDA2A    0.900000E-01   1.00800           0   0.00000       0.00000    
      3044 BUTA     14       BUTA     H7       HDA2A    0.900000E-01   1.00800           0   0.00000       0.00000    
      3045 BUTA     14       BUTA     H8       DUMH      0.00000       1.00800           0   0.00000       0.00000    
      3046 BUTA     14       BUTA     H9       DUMH      0.00000       1.00800           0   0.00000       0.00000    
      3047 BUTA     14       BUTA     LPO11    LPD     -0.380000       0.00000          -1   0.00000       0.00000    
      3048 BUTA     14       BUTA     LPO12    LPD     -0.380000       0.00000          -1   0.00000       0.00000    
      3049 BUTA     14       BUTA     LPO21    LPD     -0.380000       0.00000          -1   0.00000       0.00000    
      3050 BUTA     14       BUTA     LPO22    LPD     -0.380000       0.00000          -1   0.00000       0.00000    
      3051 BUTA     15       BUTA     C1       CD33A     2.06290       11.6110           0  -1.81190       1.18670    
      3052 BUTA     15       BUTA     DC1      DRUD     -2.33590      0.400000           0   0.00000       0.00000    
      3053 BUTA     15       BUTA     C2       CD32A     2.01970       11.6110           0  -1.59660       1.16930    
      3054 BUTA     15       BUTA     DC2      DRUD     -2.19270      0.400000           0   0.00000       0.00000    
      3055 BUTA     15       BUTA     C3       CD32A     1.90870       11.6110           0  -1.59660       1.16930    
      3056 BUTA     15       BUTA     DC3      DRUD     -2.19270      0.400000           0   0.00000       0.00000    
      3057 BUTA     15       BUTA     C4       CD2O2A    2.36920       11.6110           0  -1.01600      0.899000    
      3058 BUTA     15       BUTA     DC4      DRUD     -1.74920      0.400000           0   0.00000       0.00000    
      3059 BUTA     15       BUTA     O1       OD2C2A    1.45090       15.5994           0 -0.699000       2.39900    
      3060 BUTA     15       BUTA     DO1      DRUD     -1.45090      0.400000           0   0.00000       0.00000    
      3061 BUTA     15       BUTA     O2       OD2C2A    1.45090       15.5994           0 -0.699000       2.39900    
      3062 BUTA     15       BUTA     DO2      DRUD     -1.45090      0.400000           0   0.00000       0.00000    
      3063 BUTA     15       BUTA     H1       HDA3A    0.900000E-01   1.00800           0   0.00000       0.00000    
      3064 BUTA     15       BUTA     H2       HDA3A    0.900000E-01   1.00800           0   0.00000       0.00000    
      3065 BUTA     15       BUTA     H3       HDA3A    0.900000E-01   1.00800           0   0.00000       0.00000    
      3066 BUTA     15       BUTA     H4       HDA2A    0.900000E-01   1.00800           0   0.00000       0.00000    
      3067 BUTA     15       BUTA     H5       HDA2A    0.900000E-01   1.00800           0   0.00000       0.00000    
      3068 BUTA     15       BUTA     H6       HDA2A    0.900000E-01   1.00800           0   0.00000       0.00000    
      3069 BUTA     15       BUTA     H7       HDA2A    0.900000E-01   1.00800           0   0.00000       0.00000    
      3070 BUTA     15       BUTA     H8       DUMH      0.00000       1.00800           0   0.00000       0.00000    
      3071 BUTA     15       BUTA     H9       DUMH      0.00000       1.00800           0   0.00000       0.00000    
      3072 BUTA     15       BUTA     LPO11    LPD     -0.380000       0.00000          -1   0.00000       0.00000    
      3073 BUTA     15       BUTA     LPO12    LPD     -0.380000       0.00000          -1   0.00000       0.00000    
      3074 BUTA     15       BUTA     LPO21    LPD     -0.380000       0.00000          -1   0.00000       0.00000    
      3075 BUTA     15       BUTA     LPO22    LPD     -0.380000       0.00000          -1   0.00000       0.00000    
      3076 BUTA     16       BUTA     C1       CD33A     2.06290       11.6110           0  -1.81190       1.18670    
      3077 BUTA     16       BUTA     DC1      DRUD     -2.33590      0.400000           0   0.00000       0.00000    
      3078 BUTA     16       BUTA     C2       CD32A     2.01970       11.6110           0  -1.59660       1.16930    
      3079 BUTA     16       BUTA     DC2      DRUD     -2.19270      0.400000           0   0.00000       0.00000    
      3080 BUTA     16       BUTA     C3       CD32A     1.90870       11.6110           0  -1.59660       1.16930    
      3081 BUTA     16       BUTA     DC3      DRUD     -2.19270      0.400000           0   0.00000       0.00000    
      3082 BUTA     16       BUTA     C4       CD2O2A    2.36920       11.6110           0  -1.01600      0.899000    
      3083 BUTA     16       BUTA     DC4      DRUD     -1.74920      0.400000           0   0.00000       0.00000    
      3084 BUTA     16       BUTA     O1       OD2C2A    1.45090       15.5994           0 -0.699000       2.39900    
      3085 BUTA     16       BUTA     DO1      DRUD     -1.45090      0.400000           0   0.00000       0.00000    
      3086 BUTA     16       BUTA     O2       OD2C2A    1.45090       15.5994           0 -0.699000       2.39900    
      3087 BUTA     16       BUTA     DO2      DRUD     -1.45090      0.400000           0   0.00000       0.00000    
      3088 BUTA     16       BUTA     H1       HDA3A    0.900000E-01   1.00800           0   0.00000       0.00000    
      3089 BUTA     16       BUTA     H2       HDA3A    0.900000E-01   1.00800           0   0.00000       0.00000    
      3090 BUTA     16       BUTA     H3       HDA3A    0.900000E-01   1.00800           0   0.00000       0.00000    
      3091 BUTA     16       BUTA     H4       HDA2A    0.900000E-01   1.00800           0   0.00000       0.00000    
      3092 BUTA     16       BUTA     H5       HDA2A    0.900000E-01   1.00800           0   0.00000       0.00000    
      3093 BUTA     16       BUTA     H6       HDA2A    0.900000E-01   1.00800           0   0.00000       0.00000    
      3094 BUTA     16       BUTA     H7       HDA2A    0.900000E-01   1.00800           0   0.00000       0.00000    
      3095 BUTA     16       BUTA     H8       DUMH      0.00000       1.00800           0   0.00000       0.00000    
      3096 BUTA     16       BUTA     H9       DUMH      0.00000       1.00800           0   0.00000       0.00000    
      3097 BUTA     16       BUTA     LPO11    LPD     -0.380000       0.00000          -1   0.00000       0.00000    
      3098 BUTA     16       BUTA     LPO12    LPD     -0.380000       0.00000          -1   0.00000       0.00000    
      3099 BUTA     16       BUTA     LPO21    LPD     -0.380000       0.00000          -1   0.00000       0.00000    
      3100 BUTA     16       BUTA     LPO22    LPD     -0.380000       0.00000          -1   0.00000       0.00000    
      3101 BUTA     17       BUTA     C1       CD33A     2.06290       11.6110           0  -1.81190       1.18670    
      3102 BUTA     17       BUTA     DC1      DRUD     -2.33590      0.400000           0   0.00000       0.00000    
      3103 BUTA     17       BUTA     C2       CD32A     2.01970       11.6110           0  -1.59660       1.16930    
      3104 BUTA     17       BUTA     DC2      DRUD     -2.19270      0.400000           0   0.00000       0.00000    
      3105 BUTA     17       BUTA     C3       CD32A     1.90870       11.6110           0  -1.59660       1.16930    
      3106 BUTA     17       BUTA     DC3      DRUD     -2.19270      0.400000           0   0.00000       0.00000    
      3107 BUTA     17       BUTA     C4       CD2O2A    2.36920       11.6110           0  -1.01600      0.899000    
      3108 BUTA     17       BUTA     DC4      DRUD     -1.74920      0.400000           0   0.00000       0.00000    
      3109 BUTA     17       BUTA     O1       OD2C2A    1.45090       15.5994           0 -0.699000       2.39900    
      3110 BUTA     17       BUTA     DO1      DRUD     -1.45090      0.400000           0   0.00000       0.00000    
      3111 BUTA     17       BUTA     O2       OD2C2A    1.45090       15.5994           0 -0.699000       2.39900    
      3112 BUTA     17       BUTA     DO2      DRUD     -1.45090      0.400000           0   0.00000       0.00000    
      3113 BUTA     17       BUTA     H1       HDA3A    0.900000E-01   1.00800           0   0.00000       0.00000    
      3114 BUTA     17       BUTA     H2       HDA3A    0.900000E-01   1.00800           0   0.00000       0.00000    
      3115 BUTA     17       BUTA     H3       HDA3A    0.900000E-01   1.00800           0   0.00000       0.00000    
      3116 BUTA     17       BUTA     H4       HDA2A    0.900000E-01   1.00800           0   0.00000       0.00000    
      3117 BUTA     17       BUTA     H5       HDA2A    0.900000E-01   1.00800           0   0.00000       0.00000    
      3118 BUTA     17       BUTA     H6       HDA2A    0.900000E-01   1.00800           0   0.00000       0.00000    
      3119 BUTA     17       BUTA     H7       HDA2A    0.900000E-01   1.00800           0   0.00000       0.00000    
      3120 BUTA     17       BUTA     H8       DUMH      0.00000       1.00800           0   0.00000       0.00000    
      3121 BUTA     17       BUTA     H9       DUMH      0.00000       1.00800           0   0.00000       0.00000    
      3122 BUTA     17       BUTA     LPO11    LPD     -0.380000       0.00000          -1   0.00000       0.00000    
      3123 BUTA     17       BUTA     LPO12    LPD     -0.380000       0.00000          -1   0.00000       0.00000    
      3124 BUTA     17       BUTA     LPO21    LPD     -0.380000       0.00000          -1   0.00000       0.00000    
      3125 BUTA     17       BUTA     LPO22    LPD     -0.380000       0.00000          -1   0.00000       0.00000    
      3126 BUTA     18       BUTA     C1       CD33A     2.06290       11.6110           0  -1.81190       1.18670    
      3127 BUTA     18       BUTA     DC1      DRUD     -2.33590      0.400000           0   0.00000       0.00000    
      3128 BUTA     18       BUTA     C2       CD32A     2.01970       11.6110           0  -1.59660       1.16930    
      3129 BUTA     18       BUTA     DC2      DRUD     -2.19270      0.400000           0   0.00000       0.00000    
      3130 BUTA     18       BUTA     C3       CD32A     1.90870       11.6110           0  -1.59660       1.16930    
      3131 BUTA     18       BUTA     DC3      DRUD     -2.19270      0.400000           0   0.00000       0.00000    
      3132 BUTA     18       BUTA     C4       CD2O2A    2.36920       11.6110           0  -1.01600      0.899000    
      3133 BUTA     18       BUTA     DC4      DRUD     -1.74920      0.400000           0   0.00000       0.00000    
      3134 BUTA     18       BUTA     O1       OD2C2A    1.45090       15.5994           0 -0.699000       2.39900    
      3135 BUTA     18       BUTA     DO1      DRUD     -1.45090      0.400000           0   0.00000       0.00000    
      3136 BUTA     18       BUTA     O2       OD2C2A    1.45090       15.5994           0 -0.699000       2.39900    
      3137 BUTA     18       BUTA     DO2      DRUD     -1.45090      0.400000           0   0.00000       0.00000    
      3138 BUTA     18       BUTA     H1       HDA3A    0.900000E-01   1.00800           0   0.00000       0.00000    
      3139 BUTA     18       BUTA     H2       HDA3A    0.900000E-01   1.00800           0   0.00000       0.00000    
      3140 BUTA     18       BUTA     H3       HDA3A    0.900000E-01   1.00800           0   0.00000       0.00000    
      3141 BUTA     18       BUTA     H4       HDA2A    0.900000E-01   1.00800           0   0.00000       0.00000    
      3142 BUTA     18       BUTA     H5       HDA2A    0.900000E-01   1.00800           0   0.00000       0.00000    
      3143 BUTA     18       BUTA     H6       HDA2A    0.900000E-01   1.00800           0   0.00000       0.00000    
      3144 BUTA     18       BUTA     H7       HDA2A    0.900000E-01   1.00800           0   0.00000       0.00000    
      3145 BUTA     18       BUTA     H8       DUMH      0.00000       1.00800           0   0.00000       0.00000    
      3146 BUTA     18       BUTA     H9       DUMH      0.00000       1.00800           0   0.00000       0.00000    
      3147 BUTA     18       BUTA     LPO11    LPD     -0.380000       0.00000          -1   0.00000       0.00000    
      3148 BUTA     18       BUTA     LPO12    LPD     -0.380000       0.00000          -1   0.00000       0.00000    
      3149 BUTA     18       BUTA     LPO21    LPD     -0.380000       0.00000          -1   0.00000       0.00000    
      3150 BUTA     18       BUTA     LPO22    LPD     -0.380000       0.00000          -1   0.00000       0.00000    
      3151 BUTA     19       BUTA     C1       CD33A     2.06290       11.6110           0  -1.81190       1.18670    
      3152 BUTA     19       BUTA     DC1      DRUD     -2.33590      0.400000           0   0.00000       0.00000    
      3153 BUTA     19       BUTA     C2       CD32A     2.01970       11.6110           0  -1.59660       1.16930    
      3154 BUTA     19       BUTA     DC2      DRUD     -2.19270      0.400000           0   0.00000       0.00000    
      3155 BUTA     19       BUTA     C3       CD32A     1.90870       11.6110           0  -1.59660       1.16930    
      3156 BUTA     19       BUTA     DC3      DRUD     -2.19270      0.400000           0   0.00000       0.00000    
      3157 BUTA     19       BUTA     C4       CD2O2A    2.36920       11.6110           0  -1.01600      0.899000    
      3158 BUTA     19       BUTA     DC4      DRUD     -1.74920      0.400000           0   0.00000       0.00000    
      3159 BUTA     19       BUTA     O1       OD2C2A    1.45090       15.5994           0 -0.699000       2.39900    
      3160 BUTA     19       BUTA     DO1      DRUD     -1.45090      0.400000           0   0.00000       0.00000    
      3161 BUTA     19       BUTA     O2       OD2C2A    1.45090       15.5994           0 -0.699000       2.39900    
      3162 BUTA     19       BUTA     DO2      DRUD     -1.45090      0.400000           0   0.00000       0.00000    
      3163 BUTA     19       BUTA     H1       HDA3A    0.900000E-01   1.00800           0   0.00000       0.00000    
      3164 BUTA     19       BUTA     H2       HDA3A    0.900000E-01   1.00800           0   0.00000       0.00000    
      3165 BUTA     19       BUTA     H3       HDA3A    0.900000E-01   1.00800           0   0.00000       0.00000    
      3166 BUTA     19       BUTA     H4       HDA2A    0.900000E-01   1.00800           0   0.00000       0.00000    
      3167 BUTA     19       BUTA     H5       HDA2A    0.900000E-01   1.00800           0   0.00000       0.00000    
      3168 BUTA     19       BUTA     H6       HDA2A    0.900000E-01   1.00800           0   0.00000       0.00000    
      3169 BUTA     19       BUTA     H7       HDA2A    0.900000E-01   1.00800           0   0.00000       0.00000    
      3170 BUTA     19       BUTA     H8       DUMH      0.00000       1.00800           0   0.00000       0.00000    
      3171 BUTA     19       BUTA     H9       DUMH      0.00000       1.00800           0   0.00000       0.00000    
      3172 BUTA     19       BUTA     LPO11    LPD     -0.380000       0.00000          -1   0.00000       0.00000    
      3173 BUTA     19       BUTA     LPO12    LPD     -0.380000       0.00000          -1   0.00000       0.00000    
      3174 BUTA     19       BUTA     LPO21    LPD     -0.380000       0.00000          -1   0.00000       0.00000    
      3175 BUTA     19       BUTA     LPO22    LPD     -0.380000       0.00000          -1   0.00000       0.00000    
      3176 BUTA     20       BUTA     C1       CD33A     2.06290       11.6110           0  -1.81190       1.18670    
      3177 BUTA     20       BUTA     DC1      DRUD     -2.33590      0.400000           0   0.00000       0.00000    
      3178 BUTA     20       BUTA     C2       CD32A     2.01970       11.6110           0  -1.59660       1.16930    
      3179 BUTA     20       BUTA     DC2      DRUD     -2.19270      0.400000           0   0.00000       0.00000    
      3180 BUTA     20       BUTA     C3       CD32A     1.90870       11.6110           0  -1.59660       1.16930    
      3181 BUTA     20       BUTA     DC3      DRUD     -2.19270      0.400000           0   0.00000       0.00000    
      3182 BUTA     20       BUTA     C4       CD2O2A    2.36920       11.6110           0  -1.01600      0.899000    
      3183 BUTA     20       BUTA     DC4      DRUD     -1.74920      0.400000           0   0.00000       0.00000    
      3184 BUTA     20       BUTA     O1       OD2C2A    1.45090       15.5994           0 -0.699000       2.39900    
      3185 BUTA     20       BUTA     DO1      DRUD     -1.45090      0.400000           0   0.00000       0.00000    
      3186 BUTA     20       BUTA     O2       OD2C2A    1.45090       15.5994           0 -0.699000       2.39900    
      3187 BUTA     20       BUTA     DO2      DRUD     -1.45090      0.400000           0   0.00000       0.00000    
      3188 BUTA     20       BUTA     H1       HDA3A    0.900000E-01   1.00800           0   0.00000       0.00000    
      3189 BUTA     20       BUTA     H2       HDA3A    0.900000E-01   1.00800           0   0.00000       0.00000    
      3190 BUTA     20       BUTA     H3       HDA3A    0.900000E-01   1.00800           0   0.00000       0.00000    
      3191 BUTA     20       BUTA     H4       HDA2A    0.900000E-01   1.00800           0   0.00000       0.00000    
      3192 BUTA     20       BUTA     H5       HDA2A    0.900000E-01   1.00800           0   0.00000       0.00000    
      3193 BUTA     20       BUTA     H6       HDA2A    0.900000E-01   1.00800           0   0.00000       0.00000    
      3194 BUTA     20       BUTA     H7       HDA2A    0.900000E-01   1.00800           0   0.00000       0.00000    
      3195 BUTA     20       BUTA     H8       DUMH      0.00000       1.00800           0   0.00000       0.00000    
      3196 BUTA     20       BUTA     H9       DUMH      0.00000       1.00800           0   0.00000       0.00000    
      3197 BUTA     20       BUTA     LPO11    LPD     -0.380000       0.00000          -1   0.00000       0.00000    
      3198 BUTA     20       BUTA     LPO12    LPD     -0.380000       0.00000          -1   0.00000       0.00000    
      3199 BUTA     20       BUTA     LPO21    LPD     -0.380000       0.00000          -1   0.00000       0.00000    
      3200 BUTA     20       BUTA     LPO22    LPD     -0.380000       0.00000          -1   0.00000       0.00000    
      3201 BUTA     21       BUTA     C1       CD33A     2.06290       11.6110           0  -1.81190       1.18670    
      3202 BUTA     21       BUTA     DC1      DRUD     -2.33590      0.400000           0   0.00000       0.00000    
      3203 BUTA     21       BUTA     C2       CD32A     2.01970       11.6110           0  -1.59660       1.16930    
      3204 BUTA     21       BUTA     DC2      DRUD     -2.19270      0.400000           0   0.00000       0.00000    
      3205 BUTA     21       BUTA     C3       CD32A     1.90870       11.6110           0  -1.59660       1.16930    
      3206 BUTA     21       BUTA     DC3      DRUD     -2.19270      0.400000           0   0.00000       0.00000    
      3207 BUTA     21       BUTA     C4       CD2O2A    2.36920       11.6110           0  -1.01600      0.899000    
      3208 BUTA     21       BUTA     DC4      DRUD     -1.74920      0.400000           0   0.00000       0.00000    
      3209 BUTA     21       BUTA     O1       OD2C2A    1.45090       15.5994           0 -0.699000       2.39900    
      3210 BUTA     21       BUTA     DO1      DRUD     -1.45090      0.400000           0   0.00000       0.00000    
      3211 BUTA     21       BUTA     O2       OD2C2A    1.45090       15.5994           0 -0.699000       2.39900    
      3212 BUTA     21       BUTA     DO2      DRUD     -1.45090      0.400000           0   0.00000       0.00000    
      3213 BUTA     21       BUTA     H1       HDA3A    0.900000E-01   1.00800           0   0.00000       0.00000    
      3214 BUTA     21       BUTA     H2       HDA3A    0.900000E-01   1.00800           0   0.00000       0.00000    
      3215 BUTA     21       BUTA     H3       HDA3A    0.900000E-01   1.00800           0   0.00000       0.00000    
      3216 BUTA     21       BUTA     H4       HDA2A    0.900000E-01   1.00800           0   0.00000       0.00000    
      3217 BUTA     21       BUTA     H5       HDA2A    0.900000E-01   1.00800           0   0.00000       0.00000    
      3218 BUTA     21       BUTA     H6       HDA2A    0.900000E-01   1.00800           0   0.00000       0.00000    
      3219 BUTA     21       BUTA     H7       HDA2A    0.900000E-01   1.00800           0   0.00000       0.00000    
      3220 BUTA     21       BUTA     H8       DUMH      0.00000       1.00800           0   0.00000       0.00000    
      3221 BUTA     21       BUTA     H9       DUMH      0.00000       1.00800           0   0.00000       0.00000    
      3222 BUTA     21       BUTA     LPO11    LPD     -0.380000       0.00000          -1   0.00000       0.00000    
      3223 BUTA     21       BUTA     LPO12    LPD     -0.380000       0.00000          -1   0.00000       0.00000    
      3224 BUTA     21       BUTA     LPO21    LPD     -0.380000       0.00000          -1   0.00000       0.00000    
      3225 BUTA     21       BUTA     LPO22    LPD     -0.380000       0.00000          -1   0.00000       0.00000    
      3226 BUTA     22       BUTA     C1       CD33A     2.06290       11.6110           0  -1.81190       1.18670    
      3227 BUTA     22       BUTA     DC1      DRUD     -2.33590      0.400000           0   0.00000       0.00000    
      3228 BUTA     22       BUTA     C2       CD32A     2.01970       11.6110           0  -1.59660       1.16930    
      3229 BUTA     22       BUTA     DC2      DRUD     -2.19270      0.400000           0   0.00000       0.00000    
      3230 BUTA     22       BUTA     C3       CD32A     1.90870       11.6110           0  -1.59660       1.16930    
      3231 BUTA     22       BUTA     DC3      DRUD     -2.19270      0.400000           0   0.00000       0.00000    
      3232 BUTA     22       BUTA     C4       CD2O2A    2.36920       11.6110           0  -1.01600      0.899000    
      3233 BUTA     22       BUTA     DC4      DRUD     -1.74920      0.400000           0   0.00000       0.00000    
      3234 BUTA     22       BUTA     O1       OD2C2A    1.45090       15.5994           0 -0.699000       2.39900    
      3235 BUTA     22       BUTA     DO1      DRUD     -1.45090      0.400000           0   0.00000       0.00000    
      3236 BUTA     22       BUTA     O2       OD2C2A    1.45090       15.5994           0 -0.699000       2.39900    
      3237 BUTA     22       BUTA     DO2      DRUD     -1.45090      0.400000           0   0.00000       0.00000    
      3238 BUTA     22       BUTA     H1       HDA3A    0.900000E-01   1.00800           0   0.00000       0.00000    
      3239 BUTA     22       BUTA     H2       HDA3A    0.900000E-01   1.00800           0   0.00000       0.00000    
      3240 BUTA     22       BUTA     H3       HDA3A    0.900000E-01   1.00800           0   0.00000       0.00000    
      3241 BUTA     22       BUTA     H4       HDA2A    0.900000E-01   1.00800           0   0.00000       0.00000    
      3242 BUTA     22       BUTA     H5       HDA2A    0.900000E-01   1.00800           0   0.00000       0.00000    
      3243 BUTA     22       BUTA     H6       HDA2A    0.900000E-01   1.00800           0   0.00000       0.00000    
      3244 BUTA     22       BUTA     H7       HDA2A    0.900000E-01   1.00800           0   0.00000       0.00000    
      3245 BUTA     22       BUTA     H8       DUMH      0.00000       1.00800           0   0.00000       0.00000    
      3246 BUTA     22       BUTA     H9       DUMH      0.00000       1.00800           0   0.00000       0.00000    
      3247 BUTA     22       BUTA     LPO11    LPD     -0.380000       0.00000          -1   0.00000       0.00000    
      3248 BUTA     22       BUTA     LPO12    LPD     -0.380000       0.00000          -1   0.00000       0.00000    
      3249 BUTA     22       BUTA     LPO21    LPD     -0.380000       0.00000          -1   0.00000       0.00000    
      3250 BUTA     22       BUTA     LPO22    LPD     -0.380000       0.00000          -1   0.00000       0.00000    
      3251 BUTA     23       BUTA     C1       CD33A     2.06290       11.6110           0  -1.81190       1.18670    
      3252 BUTA     23       BUTA     DC1      DRUD     -2.33590      0.400000           0   0.00000       0.00000    
      3253 BUTA     23       BUTA     C2       CD32A     2.01970       11.6110           0  -1.59660       1.16930    
      3254 BUTA     23       BUTA     DC2      DRUD     -2.19270      0.400000           0   0.00000       0.00000    
      3255 BUTA     23       BUTA     C3       CD32A     1.90870       11.6110           0  -1.59660       1.16930    
      3256 BUTA     23       BUTA     DC3      DRUD     -2.19270      0.400000           0   0.00000       0.00000    
      3257 BUTA     23       BUTA     C4       CD2O2A    2.36920       11.6110           0  -1.01600      0.899000    
      3258 BUTA     23       BUTA     DC4      DRUD     -1.74920      0.400000           0   0.00000       0.00000    
      3259 BUTA     23       BUTA     O1       OD2C2A    1.45090       15.5994           0 -0.699000       2.39900    
      3260 BUTA     23       BUTA     DO1      DRUD     -1.45090      0.400000           0   0.00000       0.00000    
      3261 BUTA     23       BUTA     O2       OD2C2A    1.45090       15.5994           0 -0.699000       2.39900    
      3262 BUTA     23       BUTA     DO2      DRUD     -1.45090      0.400000           0   0.00000       0.00000    
      3263 BUTA     23       BUTA     H1       HDA3A    0.900000E-01   1.00800           0   0.00000       0.00000    
      3264 BUTA     23       BUTA     H2       HDA3A    0.900000E-01   1.00800           0   0.00000       0.00000    
      3265 BUTA     23       BUTA     H3       HDA3A    0.900000E-01   1.00800           0   0.00000       0.00000    
      3266 BUTA     23       BUTA     H4       HDA2A    0.900000E-01   1.00800           0   0.00000       0.00000    
      3267 BUTA     23       BUTA     H5       HDA2A    0.900000E-01   1.00800           0   0.00000       0.00000    
      3268 BUTA     23       BUTA     H6       HDA2A    0.900000E-01   1.00800           0   0.00000       0.00000    
      3269 BUTA     23       BUTA     H7       HDA2A    0.900000E-01   1.00800           0   0.00000       0.00000    
      3270 BUTA     23       BUTA     H8       DUMH      0.00000       1.00800           0   0.00000       0.00000    
      3271 BUTA     23       BUTA     H9       DUMH      0.00000       1.00800           0   0.00000       0.00000    
      3272 BUTA     23       BUTA     LPO11    LPD     -0.380000       0.00000          -1   0.00000       0.00000    
      3273 BUTA     23       BUTA     LPO12    LPD     -0.380000       0.00000          -1   0.00000       0.00000    
      3274 BUTA     23       BUTA     LPO21    LPD     -0.380000       0.00000          -1   0.00000       0.00000    
      3275 BUTA     23       BUTA     LPO22    LPD     -0.380000       0.00000          -1   0.00000       0.00000    
      3276 BUTA     24       BUTA     C1       CD33A     2.06290       11.6110           0  -1.81190       1.18670    
      3277 BUTA     24       BUTA     DC1      DRUD     -2.33590      0.400000           0   0.00000       0.00000    
      3278 BUTA     24       BUTA     C2       CD32A     2.01970       11.6110           0  -1.59660       1.16930    
      3279 BUTA     24       BUTA     DC2      DRUD     -2.19270      0.400000           0   0.00000       0.00000    
      3280 BUTA     24       BUTA     C3       CD32A     1.90870       11.6110           0  -1.59660       1.16930    
      3281 BUTA     24       BUTA     DC3      DRUD     -2.19270      0.400000           0   0.00000       0.00000    
      3282 BUTA     24       BUTA     C4       CD2O2A    2.36920       11.6110           0  -1.01600      0.899000    
      3283 BUTA     24       BUTA     DC4      DRUD     -1.74920      0.400000           0   0.00000       0.00000    
      3284 BUTA     24       BUTA     O1       OD2C2A    1.45090       15.5994           0 -0.699000       2.39900    
      3285 BUTA     24       BUTA     DO1      DRUD     -1.45090      0.400000           0   0.00000       0.00000    
      3286 BUTA     24       BUTA     O2       OD2C2A    1.45090       15.5994           0 -0.699000       2.39900    
      3287 BUTA     24       BUTA     DO2      DRUD     -1.45090      0.400000           0   0.00000       0.00000    
      3288 BUTA     24       BUTA     H1       HDA3A    0.900000E-01   1.00800           0   0.00000       0.00000    
      3289 BUTA     24       BUTA     H2       HDA3A    0.900000E-01   1.00800           0   0.00000       0.00000    
      3290 BUTA     24       BUTA     H3       HDA3A    0.900000E-01   1.00800           0   0.00000       0.00000    
      3291 BUTA     24       BUTA     H4       HDA2A    0.900000E-01   1.00800           0   0.00000       0.00000    
      3292 BUTA     24       BUTA     H5       HDA2A    0.900000E-01   1.00800           0   0.00000       0.00000    
      3293 BUTA     24       BUTA     H6       HDA2A    0.900000E-01   1.00800           0   0.00000       0.00000    
      3294 BUTA     24       BUTA     H7       HDA2A    0.900000E-01   1.00800           0   0.00000       0.00000    
      3295 BUTA     24       BUTA     H8       DUMH      0.00000       1.00800           0   0.00000       0.00000    
      3296 BUTA     24       BUTA     H9       DUMH      0.00000       1.00800           0   0.00000       0.00000    
      3297 BUTA     24       BUTA     LPO11    LPD     -0.380000       0.00000          -1   0.00000       0.00000    
      3298 BUTA     24       BUTA     LPO12    LPD     -0.380000       0.00000          -1   0.00000       0.00000    
      3299 BUTA     24       BUTA     LPO21    LPD     -0.380000       0.00000          -1   0.00000       0.00000    
      3300 BUTA     24       BUTA     LPO22    LPD     -0.380000       0.00000          -1   0.00000       0.00000    
      3301 BUTA     25       BUTA     C1       CD33A     2.06290       11.6110           0  -1.81190       1.18670    
      3302 BUTA     25       BUTA     DC1      DRUD     -2.33590      0.400000           0   0.00000       0.00000    
      3303 BUTA     25       BUTA     C2       CD32A     2.01970       11.6110           0  -1.59660       1.16930    
      3304 BUTA     25       BUTA     DC2      DRUD     -2.19270      0.400000           0   0.00000       0.00000    
      3305 BUTA     25       BUTA     C3       CD32A     1.90870       11.6110           0  -1.59660       1.16930    
      3306 BUTA     25       BUTA     DC3      DRUD     -2.19270      0.400000           0   0.00000       0.00000    
      3307 BUTA     25       BUTA     C4       CD2O2A    2.36920       11.6110           0  -1.01600      0.899000    
      3308 BUTA     25       BUTA     DC4      DRUD     -1.74920      0.400000           0   0.00000       0.00000    
      3309 BUTA     25       BUTA     O1       OD2C2A    1.45090       15.5994           0 -0.699000       2.39900    
      3310 BUTA     25       BUTA     DO1      DRUD     -1.45090      0.400000           0   0.00000       0.00000    
      3311 BUTA     25       BUTA     O2       OD2C2A    1.45090       15.5994           0 -0.699000       2.39900    
      3312 BUTA     25       BUTA     DO2      DRUD     -1.45090      0.400000           0   0.00000       0.00000    
      3313 BUTA     25       BUTA     H1       HDA3A    0.900000E-01   1.00800           0   0.00000       0.00000    
      3314 BUTA     25       BUTA     H2       HDA3A    0.900000E-01   1.00800           0   0.00000       0.00000    
      3315 BUTA     25       BUTA     H3       HDA3A    0.900000E-01   1.00800           0   0.00000       0.00000    
      3316 BUTA     25       BUTA     H4       HDA2A    0.900000E-01   1.00800           0   0.00000       0.00000    
      3317 BUTA     25       BUTA     H5       HDA2A    0.900000E-01   1.00800           0   0.00000       0.00000    
      3318 BUTA     25       BUTA     H6       HDA2A    0.900000E-01   1.00800           0   0.00000       0.00000    
      3319 BUTA     25       BUTA     H7       HDA2A    0.900000E-01   1.00800           0   0.00000       0.00000    
      3320 BUTA     25       BUTA     H8       DUMH      0.00000       1.00800           0   0.00000       0.00000    
      3321 BUTA     25       BUTA     H9       DUMH      0.00000       1.00800           0   0.00000       0.00000    
      3322 BUTA     25       BUTA     LPO11    LPD     -0.380000       0.00000          -1   0.00000       0.00000    
      3323 BUTA     25       BUTA     LPO12    LPD     -0.380000       0.00000          -1   0.00000       0.00000    
      3324 BUTA     25       BUTA     LPO21    LPD     -0.380000       0.00000          -1   0.00000       0.00000    
      3325 BUTA     25       BUTA     LPO22    LPD     -0.380000       0.00000          -1   0.00000       0.00000    
      3326 BUTA     26       BUTA     C1       CD33A     2.06290       11.6110           0  -1.81190       1.18670    
      3327 BUTA     26       BUTA     DC1      DRUD     -2.33590      0.400000           0   0.00000       0.00000    
      3328 BUTA     26       BUTA     C2       CD32A     2.01970       11.6110           0  -1.59660       1.16930    
      3329 BUTA     26       BUTA     DC2      DRUD     -2.19270      0.400000           0   0.00000       0.00000    
      3330 BUTA     26       BUTA     C3       CD32A     1.90870       11.6110           0  -1.59660       1.16930    
      3331 BUTA     26       BUTA     DC3      DRUD     -2.19270      0.400000           0   0.00000       0.00000    
      3332 BUTA     26       BUTA     C4       CD2O2A    2.36920       11.6110           0  -1.01600      0.899000    
      3333 BUTA     26       BUTA     DC4      DRUD     -1.74920      0.400000           0   0.00000       0.00000    
      3334 BUTA     26       BUTA     O1       OD2C2A    1.45090       15.5994           0 -0.699000       2.39900    
      3335 BUTA     26       BUTA     DO1      DRUD     -1.45090      0.400000           0   0.00000       0.00000    
      3336 BUTA     26       BUTA     O2       OD2C2A    1.45090       15.5994           0 -0.699000       2.39900    
      3337 BUTA     26       BUTA     DO2      DRUD     -1.45090      0.400000           0   0.00000       0.00000    
      3338 BUTA     26       BUTA     H1       HDA3A    0.900000E-01   1.00800           0   0.00000       0.00000    
      3339 BUTA     26       BUTA     H2       HDA3A    0.900000E-01   1.00800           0   0.00000       0.00000    
      3340 BUTA     26       BUTA     H3       HDA3A    0.900000E-01   1.00800           0   0.00000       0.00000    
      3341 BUTA     26       BUTA     H4       HDA2A    0.900000E-01   1.00800           0   0.00000       0.00000    
      3342 BUTA     26       BUTA     H5       HDA2A    0.900000E-01   1.00800           0   0.00000       0.00000    
      3343 BUTA     26       BUTA     H6       HDA2A    0.900000E-01   1.00800           0   0.00000       0.00000    
      3344 BUTA     26       BUTA     H7       HDA2A    0.900000E-01   1.00800           0   0.00000       0.00000    
      3345 BUTA     26       BUTA     H8       DUMH      0.00000       1.00800           0   0.00000       0.00000    
      3346 BUTA     26       BUTA     H9       DUMH      0.00000       1.00800           0   0.00000       0.00000    
      3347 BUTA     26       BUTA     LPO11    LPD     -0.380000       0.00000          -1   0.00000       0.00000    
      3348 BUTA     26       BUTA     LPO12    LPD     -0.380000       0.00000          -1   0.00000       0.00000    
      3349 BUTA     26       BUTA     LPO21    LPD     -0.380000       0.00000          -1   0.00000       0.00000    
      3350 BUTA     26       BUTA     LPO22    LPD     -0.380000       0.00000          -1   0.00000       0.00000    
      3351 BUTA     27       BUTA     C1       CD33A     2.06290       11.6110           0  -1.81190       1.18670    
      3352 BUTA     27       BUTA     DC1      DRUD     -2.33590      0.400000           0   0.00000       0.00000    
      3353 BUTA     27       BUTA     C2       CD32A     2.01970       11.6110           0  -1.59660       1.16930    
      3354 BUTA     27       BUTA     DC2      DRUD     -2.19270      0.400000           0   0.00000       0.00000    
      3355 BUTA     27       BUTA     C3       CD32A     1.90870       11.6110           0  -1.59660       1.16930    
      3356 BUTA     27       BUTA     DC3      DRUD     -2.19270      0.400000           0   0.00000       0.00000    
      3357 BUTA     27       BUTA     C4       CD2O2A    2.36920       11.6110           0  -1.01600      0.899000    
      3358 BUTA     27       BUTA     DC4      DRUD     -1.74920      0.400000           0   0.00000       0.00000    
      3359 BUTA     27       BUTA     O1       OD2C2A    1.45090       15.5994           0 -0.699000       2.39900    
      3360 BUTA     27       BUTA     DO1      DRUD     -1.45090      0.400000           0   0.00000       0.00000    
      3361 BUTA     27       BUTA     O2       OD2C2A    1.45090       15.5994           0 -0.699000       2.39900    
      3362 BUTA     27       BUTA     DO2      DRUD     -1.45090      0.400000           0   0.00000       0.00000    
      3363 BUTA     27       BUTA     H1       HDA3A    0.900000E-01   1.00800           0   0.00000       0.00000    
      3364 BUTA     27       BUTA     H2       HDA3A    0.900000E-01   1.00800           0   0.00000       0.00000    
      3365 BUTA     27       BUTA     H3       HDA3A    0.900000E-01   1.00800           0   0.00000       0.00000    
      3366 BUTA     27       BUTA     H4       HDA2A    0.900000E-01   1.00800           0   0.00000       0.00000    
      3367 BUTA     27       BUTA     H5       HDA2A    0.900000E-01   1.00800           0   0.00000       0.00000    
      3368 BUTA     27       BUTA     H6       HDA2A    0.900000E-01   1.00800           0   0.00000       0.00000    
      3369 BUTA     27       BUTA     H7       HDA2A    0.900000E-01   1.00800           0   0.00000       0.00000    
      3370 BUTA     27       BUTA     H8       DUMH      0.00000       1.00800           0   0.00000       0.00000    
      3371 BUTA     27       BUTA     H9       DUMH      0.00000       1.00800           0   0.00000       0.00000    
      3372 BUTA     27       BUTA     LPO11    LPD     -0.380000       0.00000          -1   0.00000       0.00000    
      3373 BUTA     27       BUTA     LPO12    LPD     -0.380000       0.00000          -1   0.00000       0.00000    
      3374 BUTA     27       BUTA     LPO21    LPD     -0.380000       0.00000          -1   0.00000       0.00000    
      3375 BUTA     27       BUTA     LPO22    LPD     -0.380000       0.00000          -1   0.00000       0.00000    
      3376 BUTA     28       BUTA     C1       CD33A     2.06290       11.6110           0  -1.81190       1.18670    
      3377 BUTA     28       BUTA     DC1      DRUD     -2.33590      0.400000           0   0.00000       0.00000    
      3378 BUTA     28       BUTA     C2       CD32A     2.01970       11.6110           0  -1.59660       1.16930    
      3379 BUTA     28       BUTA     DC2      DRUD     -2.19270      0.400000           0   0.00000       0.00000    
      3380 BUTA     28       BUTA     C3       CD32A     1.90870       11.6110           0  -1.59660       1.16930    
      3381 BUTA     28       BUTA     DC3      DRUD     -2.19270      0.400000           0   0.00000       0.00000    
      3382 BUTA     28       BUTA     C4       CD2O2A    2.36920       11.6110           0  -1.01600      0.899000    
      3383 BUTA     28       BUTA     DC4      DRUD     -1.74920      0.400000           0   0.00000       0.00000    
      3384 BUTA     28       BUTA     O1       OD2C2A    1.45090       15.5994           0 -0.699000       2.39900    
      3385 BUTA     28       BUTA     DO1      DRUD     -1.45090      0.400000           0   0.00000       0.00000    
      3386 BUTA     28       BUTA     O2       OD2C2A    1.45090       15.5994           0 -0.699000       2.39900    
      3387 BUTA     28       BUTA     DO2      DRUD     -1.45090      0.400000           0   0.00000       0.00000    
      3388 BUTA     28       BUTA     H1       HDA3A    0.900000E-01   1.00800           0   0.00000       0.00000    
      3389 BUTA     28       BUTA     H2       HDA3A    0.900000E-01   1.00800           0   0.00000       0.00000    
      3390 BUTA     28       BUTA     H3       HDA3A    0.900000E-01   1.00800           0   0.00000       0.00000    
      3391 BUTA     28       BUTA     H4       HDA2A    0.900000E-01   1.00800           0   0.00000       0.00000    
      3392 BUTA     28       BUTA     H5       HDA2A    0.900000E-01   1.00800           0   0.00000       0.00000    
      3393 BUTA     28       BUTA     H6       HDA2A    0.900000E-01   1.00800           0   0.00000       0.00000    
      3394 BUTA     28       BUTA     H7       HDA2A    0.900000E-01   1.00800           0   0.00000       0.00000    
      3395 BUTA     28       BUTA     H8       DUMH      0.00000       1.00800           0   0.00000       0.00000    
      3396 BUTA     28       BUTA     H9       DUMH      0.00000       1.00800           0   0.00000       0.00000    
      3397 BUTA     28       BUTA     LPO11    LPD     -0.380000       0.00000          -1   0.00000       0.00000    
      3398 BUTA     28       BUTA     LPO12    LPD     -0.380000       0.00000          -1   0.00000       0.00000    
      3399 BUTA     28       BUTA     LPO21    LPD     -0.380000       0.00000          -1   0.00000       0.00000    
      3400 BUTA     28       BUTA     LPO22    LPD     -0.380000       0.00000          -1   0.00000       0.00000    
      3401 BUTA     29       BUTA     C1       CD33A     2.06290       11.6110           0  -1.81190       1.18670    
      3402 BUTA     29       BUTA     DC1      DRUD     -2.33590      0.400000           0   0.00000       0.00000    
      3403 BUTA     29       BUTA     C2       CD32A     2.01970       11.6110           0  -1.59660       1.16930    
      3404 BUTA     29       BUTA     DC2      DRUD     -2.19270      0.400000           0   0.00000       0.00000    
      3405 BUTA     29       BUTA     C3       CD32A     1.90870       11.6110           0  -1.59660       1.16930    
      3406 BUTA     29       BUTA     DC3      DRUD     -2.19270      0.400000           0   0.00000       0.00000    
      3407 BUTA     29       BUTA     C4       CD2O2A    2.36920       11.6110           0  -1.01600      0.899000    
      3408 BUTA     29       BUTA     DC4      DRUD     -1.74920      0.400000           0   0.00000       0.00000    
      3409 BUTA     29       BUTA     O1       OD2C2A    1.45090       15.5994           0 -0.699000       2.39900    
      3410 BUTA     29       BUTA     DO1      DRUD     -1.45090      0.400000           0   0.00000       0.00000    
      3411 BUTA     29       BUTA     O2       OD2C2A    1.45090       15.5994           0 -0.699000       2.39900    
      3412 BUTA     29       BUTA     DO2      DRUD     -1.45090      0.400000           0   0.00000       0.00000    
      3413 BUTA     29       BUTA     H1       HDA3A    0.900000E-01   1.00800           0   0.00000       0.00000    
      3414 BUTA     29       BUTA     H2       HDA3A    0.900000E-01   1.00800           0   0.00000       0.00000    
      3415 BUTA     29       BUTA     H3       HDA3A    0.900000E-01   1.00800           0   0.00000       0.00000    
      3416 BUTA     29       BUTA     H4       HDA2A    0.900000E-01   1.00800           0   0.00000       0.00000    
      3417 BUTA     29       BUTA     H5       HDA2A    0.900000E-01   1.00800           0   0.00000       0.00000    
      3418 BUTA     29       BUTA     H6       HDA2A    0.900000E-01   1.00800           0   0.00000       0.00000    
      3419 BUTA     29       BUTA     H7       HDA2A    0.900000E-01   1.00800           0   0.00000       0.00000    
      3420 BUTA     29       BUTA     H8       DUMH      0.00000       1.00800           0   0.00000       0.00000    
      3421 BUTA     29       BUTA     H9       DUMH      0.00000       1.00800           0   0.00000       0.00000    
      3422 BUTA     29       BUTA     LPO11    LPD     -0.380000       0.00000          -1   0.00000       0.00000    
      3423 BUTA     29       BUTA     LPO12    LPD     -0.380000       0.00000          -1   0.00000       0.00000    
      3424 BUTA     29       BUTA     LPO21    LPD     -0.380000       0.00000          -1   0.00000       0.00000    
      3425 BUTA     29       BUTA     LPO22    LPD     -0.380000       0.00000          -1   0.00000       0.00000    
      3426 BUTA     30       BUTA     C1       CD33A     2.06290       11.6110           0  -1.81190       1.18670    
      3427 BUTA     30       BUTA     DC1      DRUD     -2.33590      0.400000           0   0.00000       0.00000    
      3428 BUTA     30       BUTA     C2       CD32A     2.01970       11.6110           0  -1.59660       1.16930    
      3429 BUTA     30       BUTA     DC2      DRUD     -2.19270      0.400000           0   0.00000       0.00000    
      3430 BUTA     30       BUTA     C3       CD32A     1.90870       11.6110           0  -1.59660       1.16930    
      3431 BUTA     30       BUTA     DC3      DRUD     -2.19270      0.400000           0   0.00000       0.00000    
      3432 BUTA     30       BUTA     C4       CD2O2A    2.36920       11.6110           0  -1.01600      0.899000    
      3433 BUTA     30       BUTA     DC4      DRUD     -1.74920      0.400000           0   0.00000       0.00000    
      3434 BUTA     30       BUTA     O1       OD2C2A    1.45090       15.5994           0 -0.699000       2.39900    
      3435 BUTA     30       BUTA     DO1      DRUD     -1.45090      0.400000           0   0.00000       0.00000    
      3436 BUTA     30       BUTA     O2       OD2C2A    1.45090       15.5994           0 -0.699000       2.39900    
      3437 BUTA     30       BUTA     DO2      DRUD     -1.45090      0.400000           0   0.00000       0.00000    
      3438 BUTA     30       BUTA     H1       HDA3A    0.900000E-01   1.00800           0   0.00000       0.00000    
      3439 BUTA     30       BUTA     H2       HDA3A    0.900000E-01   1.00800           0   0.00000       0.00000    
      3440 BUTA     30       BUTA     H3       HDA3A    0.900000E-01   1.00800           0   0.00000       0.00000    
      3441 BUTA     30       BUTA     H4       HDA2A    0.900000E-01   1.00800           0   0.00000       0.00000    
      3442 BUTA     30       BUTA     H5       HDA2A    0.900000E-01   1.00800           0   0.00000       0.00000    
      3443 BUTA     30       BUTA     H6       HDA2A    0.900000E-01   1.00800           0   0.00000       0.00000    
      3444 BUTA     30       BUTA     H7       HDA2A    0.900000E-01   1.00800           0   0.00000       0.00000    
      3445 BUTA     30       BUTA     H8       DUMH      0.00000       1.00800           0   0.00000       0.00000    
      3446 BUTA     30       BUTA     H9       DUMH      0.00000       1.00800           0   0.00000       0.00000    
      3447 BUTA     30       BUTA     LPO11    LPD     -0.380000       0.00000          -1   0.00000       0.00000    
      3448 BUTA     30       BUTA     LPO12    LPD     -0.380000       0.00000          -1   0.00000       0.00000    
      3449 BUTA     30       BUTA     LPO21    LPD     -0.380000       0.00000          -1   0.00000       0.00000    
      3450 BUTA     30       BUTA     LPO22    LPD     -0.380000       0.00000          -1   0.00000       0.00000    
      3451 BUTA     31       BUTA     C1       CD33A     2.06290       11.6110           0  -1.81190       1.18670    
      3452 BUTA     31       BUTA     DC1      DRUD     -2.33590      0.400000           0   0.00000       0.00000    
      3453 BUTA     31       BUTA     C2       CD32A     2.01970       11.6110           0  -1.59660       1.16930    
      3454 BUTA     31       BUTA     DC2      DRUD     -2.19270      0.400000           0   0.00000       0.00000    
      3455 BUTA     31       BUTA     C3       CD32A     1.90870       11.6110           0  -1.59660       1.16930    
      3456 BUTA     31       BUTA     DC3      DRUD     -2.19270      0.400000           0   0.00000       0.00000    
      3457 BUTA     31       BUTA     C4       CD2O2A    2.36920       11.6110           0  -1.01600      0.899000    
      3458 BUTA     31       BUTA     DC4      DRUD     -1.74920      0.400000           0   0.00000       0.00000    
      3459 BUTA     31       BUTA     O1       OD2C2A    1.45090       15.5994           0 -0.699000       2.39900    
      3460 BUTA     31       BUTA     DO1      DRUD     -1.45090      0.400000           0   0.00000       0.00000    
      3461 BUTA     31       BUTA     O2       OD2C2A    1.45090       15.5994           0 -0.699000       2.39900    
      3462 BUTA     31       BUTA     DO2      DRUD     -1.45090      0.400000           0   0.00000       0.00000    
      3463 BUTA     31       BUTA     H1       HDA3A    0.900000E-01   1.00800           0   0.00000       0.00000    
      3464 BUTA     31       BUTA     H2       HDA3A    0.900000E-01   1.00800           0   0.00000       0.00000    
      3465 BUTA     31       BUTA     H3       HDA3A    0.900000E-01   1.00800           0   0.00000       0.00000    
      3466 BUTA     31       BUTA     H4       HDA2A    0.900000E-01   1.00800           0   0.00000       0.00000    
      3467 BUTA     31       BUTA     H5       HDA2A    0.900000E-01   1.00800           0   0.00000       0.00000    
      3468 BUTA     31       BUTA     H6       HDA2A    0.900000E-01   1.00800           0   0.00000       0.00000    
      3469 BUTA     31       BUTA     H7       HDA2A    0.900000E-01   1.00800           0   0.00000       0.00000    
      3470 BUTA     31       BUTA     H8       DUMH      0.00000       1.00800           0   0.00000       0.00000    
      3471 BUTA     31       BUTA     H9       DUMH      0.00000       1.00800           0   0.00000       0.00000    
      3472 BUTA     31       BUTA     LPO11    LPD     -0.380000       0.00000          -1   0.00000       0.00000    
      3473 BUTA     31       BUTA     LPO12    LPD     -0.380000       0.00000          -1   0.00000       0.00000    
      3474 BUTA     31       BUTA     LPO21    LPD     -0.380000       0.00000          -1   0.00000       0.00000    
      3475 BUTA     31       BUTA     LPO22    LPD     -0.380000       0.00000          -1   0.00000       0.00000    
      3476 BUTA     32       BUTA     C1       CD33A     2.06290       11.6110           0  -1.81190       1.18670    
      3477 BUTA     32       BUTA     DC1      DRUD     -2.33590      0.400000           0   0.00000       0.00000    
      3478 BUTA     32       BUTA     C2       CD32A     2.01970       11.6110           0  -1.59660       1.16930    
      3479 BUTA     32       BUTA     DC2      DRUD     -2.19270      0.400000           0   0.00000       0.00000    
      3480 BUTA     32       BUTA     C3       CD32A     1.90870       11.6110           0  -1.59660       1.16930    
      3481 BUTA     32       BUTA     DC3      DRUD     -2.19270      0.400000           0   0.00000       0.00000    
      3482 BUTA     32       BUTA     C4       CD2O2A    2.36920       11.6110           0  -1.01600      0.899000    
      3483 BUTA     32       BUTA     DC4      DRUD     -1.74920      0.400000           0   0.00000       0.00000    
      3484 BUTA     32       BUTA     O1       OD2C2A    1.45090       15.5994           0 -0.699000       2.39900    
      3485 BUTA     32       BUTA     DO1      DRUD     -1.45090      0.400000           0   0.00000       0.00000    
      3486 BUTA     32       BUTA     O2       OD2C2A    1.45090       15.5994           0 -0.699000       2.39900    
      3487 BUTA     32       BUTA     DO2      DRUD     -1.45090      0.400000           0   0.00000       0.00000    
      3488 BUTA     32       BUTA     H1       HDA3A    0.900000E-01   1.00800           0   0.00000       0.00000    
      3489 BUTA     32       BUTA     H2       HDA3A    0.900000E-01   1.00800           0   0.00000       0.00000    
      3490 BUTA     32       BUTA     H3       HDA3A    0.900000E-01   1.00800           0   0.00000       0.00000    
      3491 BUTA     32       BUTA     H4       HDA2A    0.900000E-01   1.00800           0   0.00000       0.00000    
      3492 BUTA     32       BUTA     H5       HDA2A    0.900000E-01   1.00800           0   0.00000       0.00000    
      3493 BUTA     32       BUTA     H6       HDA2A    0.900000E-01   1.00800           0   0.00000       0.00000    
      3494 BUTA     32       BUTA     H7       HDA2A    0.900000E-01   1.00800           0   0.00000       0.00000    
      3495 BUTA     32       BUTA     H8       DUMH      0.00000       1.00800           0   0.00000       0.00000    
      3496 BUTA     32       BUTA     H9       DUMH      0.00000       1.00800           0   0.00000       0.00000    
      3497 BUTA     32       BUTA     LPO11    LPD     -0.380000       0.00000          -1   0.00000       0.00000    
      3498 BUTA     32       BUTA     LPO12    LPD     -0.380000       0.00000          -1   0.00000       0.00000    
      3499 BUTA     32       BUTA     LPO21    LPD     -0.380000       0.00000          -1   0.00000       0.00000    
      3500 BUTA     32       BUTA     LPO22    LPD     -0.380000       0.00000          -1   0.00000       0.00000    
      3501 BUTA     33       BUTA     C1       CD33A     2.06290       11.6110           0  -1.81190       1.18670    
      3502 BUTA     33       BUTA     DC1      DRUD     -2.33590      0.400000           0   0.00000       0.00000    
      3503 BUTA     33       BUTA     C2       CD32A     2.01970       11.6110           0  -1.59660       1.16930    
      3504 BUTA     33       BUTA     DC2      DRUD     -2.19270      0.400000           0   0.00000       0.00000    
      3505 BUTA     33       BUTA     C3       CD32A     1.90870       11.6110           0  -1.59660       1.16930    
      3506 BUTA     33       BUTA     DC3      DRUD     -2.19270      0.400000           0   0.00000       0.00000    
      3507 BUTA     33       BUTA     C4       CD2O2A    2.36920       11.6110           0  -1.01600      0.899000    
      3508 BUTA     33       BUTA     DC4      DRUD     -1.74920      0.400000           0   0.00000       0.00000    
      3509 BUTA     33       BUTA     O1       OD2C2A    1.45090       15.5994           0 -0.699000       2.39900    
      3510 BUTA     33       BUTA     DO1      DRUD     -1.45090      0.400000           0   0.00000       0.00000    
      3511 BUTA     33       BUTA     O2       OD2C2A    1.45090       15.5994           0 -0.699000       2.39900    
      3512 BUTA     33       BUTA     DO2      DRUD     -1.45090      0.400000           0   0.00000       0.00000    
      3513 BUTA     33       BUTA     H1       HDA3A    0.900000E-01   1.00800           0   0.00000       0.00000    
      3514 BUTA     33       BUTA     H2       HDA3A    0.900000E-01   1.00800           0   0.00000       0.00000    
      3515 BUTA     33       BUTA     H3       HDA3A    0.900000E-01   1.00800           0   0.00000       0.00000    
      3516 BUTA     33       BUTA     H4       HDA2A    0.900000E-01   1.00800           0   0.00000       0.00000    
      3517 BUTA     33       BUTA     H5       HDA2A    0.900000E-01   1.00800           0   0.00000       0.00000    
      3518 BUTA     33       BUTA     H6       HDA2A    0.900000E-01   1.00800           0   0.00000       0.00000    
      3519 BUTA     33       BUTA     H7       HDA2A    0.900000E-01   1.00800           0   0.00000       0.00000    
      3520 BUTA     33       BUTA     H8       DUMH      0.00000       1.00800           0   0.00000       0.00000    
      3521 BUTA     33       BUTA     H9       DUMH      0.00000       1.00800           0   0.00000       0.00000    
      3522 BUTA     33       BUTA     LPO11    LPD     -0.380000       0.00000          -1   0.00000       0.00000    
      3523 BUTA     33       BUTA     LPO12    LPD     -0.380000       0.00000          -1   0.00000       0.00000    
      3524 BUTA     33       BUTA     LPO21    LPD     -0.380000       0.00000          -1   0.00000       0.00000    
      3525 BUTA     33       BUTA     LPO22    LPD     -0.380000       0.00000          -1   0.00000       0.00000    
      3526 BUTA     34       BUTA     C1       CD33A     2.06290       11.6110           0  -1.81190       1.18670    
      3527 BUTA     34       BUTA     DC1      DRUD     -2.33590      0.400000           0   0.00000       0.00000    
      3528 BUTA     34       BUTA     C2       CD32A     2.01970       11.6110           0  -1.59660       1.16930    
      3529 BUTA     34       BUTA     DC2      DRUD     -2.19270      0.400000           0   0.00000       0.00000    
      3530 BUTA     34       BUTA     C3       CD32A     1.90870       11.6110           0  -1.59660       1.16930    
      3531 BUTA     34       BUTA     DC3      DRUD     -2.19270      0.400000           0   0.00000       0.00000    
      3532 BUTA     34       BUTA     C4       CD2O2A    2.36920       11.6110           0  -1.01600      0.899000    
      3533 BUTA     34       BUTA     DC4      DRUD     -1.74920      0.400000           0   0.00000       0.00000    
      3534 BUTA     34       BUTA     O1       OD2C2A    1.45090       15.5994           0 -0.699000       2.39900    
      3535 BUTA     34       BUTA     DO1      DRUD     -1.45090      0.400000           0   0.00000       0.00000    
      3536 BUTA     34       BUTA     O2       OD2C2A    1.45090       15.5994           0 -0.699000       2.39900    
      3537 BUTA     34       BUTA     DO2      DRUD     -1.45090      0.400000           0   0.00000       0.00000    
      3538 BUTA     34       BUTA     H1       HDA3A    0.900000E-01   1.00800           0   0.00000       0.00000    
      3539 BUTA     34       BUTA     H2       HDA3A    0.900000E-01   1.00800           0   0.00000       0.00000    
      3540 BUTA     34       BUTA     H3       HDA3A    0.900000E-01   1.00800           0   0.00000       0.00000    
      3541 BUTA     34       BUTA     H4       HDA2A    0.900000E-01   1.00800           0   0.00000       0.00000    
      3542 BUTA     34       BUTA     H5       HDA2A    0.900000E-01   1.00800           0   0.00000       0.00000    
      3543 BUTA     34       BUTA     H6       HDA2A    0.900000E-01   1.00800           0   0.00000       0.00000    
      3544 BUTA     34       BUTA     H7       HDA2A    0.900000E-01   1.00800           0   0.00000       0.00000    
      3545 BUTA     34       BUTA     H8       DUMH      0.00000       1.00800           0   0.00000       0.00000    
      3546 BUTA     34       BUTA     H9       DUMH      0.00000       1.00800           0   0.00000       0.00000    
      3547 BUTA     34       BUTA     LPO11    LPD     -0.380000       0.00000          -1   0.00000       0.00000    
      3548 BUTA     34       BUTA     LPO12    LPD     -0.380000       0.00000          -1   0.00000       0.00000    
      3549 BUTA     34       BUTA     LPO21    LPD     -0.380000       0.00000          -1   0.00000       0.00000    
      3550 BUTA     34       BUTA     LPO22    LPD     -0.380000       0.00000          -1   0.00000       0.00000    
      3551 BUTA     35       BUTA     C1       CD33A     2.06290       11.6110           0  -1.81190       1.18670    
      3552 BUTA     35       BUTA     DC1      DRUD     -2.33590      0.400000           0   0.00000       0.00000    
      3553 BUTA     35       BUTA     C2       CD32A     2.01970       11.6110           0  -1.59660       1.16930    
      3554 BUTA     35       BUTA     DC2      DRUD     -2.19270      0.400000           0   0.00000       0.00000    
      3555 BUTA     35       BUTA     C3       CD32A     1.90870       11.6110           0  -1.59660       1.16930    
      3556 BUTA     35       BUTA     DC3      DRUD     -2.19270      0.400000           0   0.00000       0.00000    
      3557 BUTA     35       BUTA     C4       CD2O2A    2.36920       11.6110           0  -1.01600      0.899000    
      3558 BUTA     35       BUTA     DC4      DRUD     -1.74920      0.400000           0   0.00000       0.00000    
      3559 BUTA     35       BUTA     O1       OD2C2A    1.45090       15.5994           0 -0.699000       2.39900    
      3560 BUTA     35       BUTA     DO1      DRUD     -1.45090      0.400000           0   0.00000       0.00000    
      3561 BUTA     35       BUTA     O2       OD2C2A    1.45090       15.5994           0 -0.699000       2.39900    
      3562 BUTA     35       BUTA     DO2      DRUD     -1.45090      0.400000           0   0.00000       0.00000    
      3563 BUTA     35       BUTA     H1       HDA3A    0.900000E-01   1.00800           0   0.00000       0.00000    
      3564 BUTA     35       BUTA     H2       HDA3A    0.900000E-01   1.00800           0   0.00000       0.00000    
      3565 BUTA     35       BUTA     H3       HDA3A    0.900000E-01   1.00800           0   0.00000       0.00000    
      3566 BUTA     35       BUTA     H4       HDA2A    0.900000E-01   1.00800           0   0.00000       0.00000    
      3567 BUTA     35       BUTA     H5       HDA2A    0.900000E-01   1.00800           0   0.00000       0.00000    
      3568 BUTA     35       BUTA     H6       HDA2A    0.900000E-01   1.00800           0   0.00000       0.00000    
      3569 BUTA     35       BUTA     H7       HDA2A    0.900000E-01   1.00800           0   0.00000       0.00000    
      3570 BUTA     35       BUTA     H8       DUMH      0.00000       1.00800           0   0.00000       0.00000    
      3571 BUTA     35       BUTA     H9       DUMH      0.00000       1.00800           0   0.00000       0.00000    
      3572 BUTA     35       BUTA     LPO11    LPD     -0.380000       0.00000          -1   0.00000       0.00000    
      3573 BUTA     35       BUTA     LPO12    LPD     -0.380000       0.00000          -1   0.00000       0.00000    
      3574 BUTA     35       BUTA     LPO21    LPD     -0.380000       0.00000          -1   0.00000       0.00000    
      3575 BUTA     35       BUTA     LPO22    LPD     -0.380000       0.00000          -1   0.00000       0.00000    
      3576 BUTA     36       BUTA     C1       CD33A     2.06290       11.6110           0  -1.81190       1.18670    
      3577 BUTA     36       BUTA     DC1      DRUD     -2.33590      0.400000           0   0.00000       0.00000    
      3578 BUTA     36       BUTA     C2       CD32A     2.01970       11.6110           0  -1.59660       1.16930    
      3579 BUTA     36       BUTA     DC2      DRUD     -2.19270      0.400000           0   0.00000       0.00000    
      3580 BUTA     36       BUTA     C3       CD32A     1.90870       11.6110           0  -1.59660       1.16930    
      3581 BUTA     36       BUTA     DC3      DRUD     -2.19270      0.400000           0   0.00000       0.00000    
      3582 BUTA     36       BUTA     C4       CD2O2A    2.36920       11.6110           0  -1.01600      0.899000    
      3583 BUTA     36       BUTA     DC4      DRUD     -1.74920      0.400000           0   0.00000       0.00000    
      3584 BUTA     36       BUTA     O1       OD2C2A    1.45090       15.5994           0 -0.699000       2.39900    
      3585 BUTA     36       BUTA     DO1      DRUD     -1.45090      0.400000           0   0.00000       0.00000    
      3586 BUTA     36       BUTA     O2       OD2C2A    1.45090       15.5994           0 -0.699000       2.39900    
      3587 BUTA     36       BUTA     DO2      DRUD     -1.45090      0.400000           0   0.00000       0.00000    
      3588 BUTA     36       BUTA     H1       HDA3A    0.900000E-01   1.00800           0   0.00000       0.00000    
      3589 BUTA     36       BUTA     H2       HDA3A    0.900000E-01   1.00800           0   0.00000       0.00000    
      3590 BUTA     36       BUTA     H3       HDA3A    0.900000E-01   1.00800           0   0.00000       0.00000    
      3591 BUTA     36       BUTA     H4       HDA2A    0.900000E-01   1.00800           0   0.00000       0.00000    
      3592 BUTA     36       BUTA     H5       HDA2A    0.900000E-01   1.00800           0   0.00000       0.00000    
      3593 BUTA     36       BUTA     H6       HDA2A    0.900000E-01   1.00800           0   0.00000       0.00000    
      3594 BUTA     36       BUTA     H7       HDA2A    0.900000E-01   1.00800           0   0.00000       0.00000    
      3595 BUTA     36       BUTA     H8       DUMH      0.00000       1.00800           0   0.00000       0.00000    
      3596 BUTA     36       BUTA     H9       DUMH      0.00000       1.00800           0   0.00000       0.00000    
      3597 BUTA     36       BUTA     LPO11    LPD     -0.380000       0.00000          -1   0.00000       0.00000    
      3598 BUTA     36       BUTA     LPO12    LPD     -0.380000       0.00000          -1   0.00000       0.00000    
      3599 BUTA     36       BUTA     LPO21    LPD     -0.380000       0.00000          -1   0.00000       0.00000    
      3600 BUTA     36       BUTA     LPO22    LPD     -0.380000       0.00000          -1   0.00000       0.00000    
      3601 BUTA     37       BUTA     C1       CD33A     2.06290       11.6110           0  -1.81190       1.18670    
      3602 BUTA     37       BUTA     DC1      DRUD     -2.33590      0.400000           0   0.00000       0.00000    
      3603 BUTA     37       BUTA     C2       CD32A     2.01970       11.6110           0  -1.59660       1.16930    
      3604 BUTA     37       BUTA     DC2      DRUD     -2.19270      0.400000           0   0.00000       0.00000    
      3605 BUTA     37       BUTA     C3       CD32A     1.90870       11.6110           0  -1.59660       1.16930    
      3606 BUTA     37       BUTA     DC3      DRUD     -2.19270      0.400000           0   0.00000       0.00000    
      3607 BUTA     37       BUTA     C4       CD2O2A    2.36920       11.6110           0  -1.01600      0.899000    
      3608 BUTA     37       BUTA     DC4      DRUD     -1.74920      0.400000           0   0.00000       0.00000    
      3609 BUTA     37       BUTA     O1       OD2C2A    1.45090       15.5994           0 -0.699000       2.39900    
      3610 BUTA     37       BUTA     DO1      DRUD     -1.45090      0.400000           0   0.00000       0.00000    
      3611 BUTA     37       BUTA     O2       OD2C2A    1.45090       15.5994           0 -0.699000       2.39900    
      3612 BUTA     37       BUTA     DO2      DRUD     -1.45090      0.400000           0   0.00000       0.00000    
      3613 BUTA     37       BUTA     H1       HDA3A    0.900000E-01   1.00800           0   0.00000       0.00000    
      3614 BUTA     37       BUTA     H2       HDA3A    0.900000E-01   1.00800           0   0.00000       0.00000    
      3615 BUTA     37       BUTA     H3       HDA3A    0.900000E-01   1.00800           0   0.00000       0.00000    
      3616 BUTA     37       BUTA     H4       HDA2A    0.900000E-01   1.00800           0   0.00000       0.00000    
      3617 BUTA     37       BUTA     H5       HDA2A    0.900000E-01   1.00800           0   0.00000       0.00000    
      3618 BUTA     37       BUTA     H6       HDA2A    0.900000E-01   1.00800           0   0.00000       0.00000    
      3619 BUTA     37       BUTA     H7       HDA2A    0.900000E-01   1.00800           0   0.00000       0.00000    
      3620 BUTA     37       BUTA     H8       DUMH      0.00000       1.00800           0   0.00000       0.00000    
      3621 BUTA     37       BUTA     H9       DUMH      0.00000       1.00800           0   0.00000       0.00000    
      3622 BUTA     37       BUTA     LPO11    LPD     -0.380000       0.00000          -1   0.00000       0.00000    
      3623 BUTA     37       BUTA     LPO12    LPD     -0.380000       0.00000          -1   0.00000       0.00000    
      3624 BUTA     37       BUTA     LPO21    LPD     -0.380000       0.00000          -1   0.00000       0.00000    
      3625 BUTA     37       BUTA     LPO22    LPD     -0.380000       0.00000          -1   0.00000       0.00000    
      3626 BUTA     38       BUTA     C1       CD33A     2.06290       11.6110           0  -1.81190       1.18670    
      3627 BUTA     38       BUTA     DC1      DRUD     -2.33590      0.400000           0   0.00000       0.00000    
      3628 BUTA     38       BUTA     C2       CD32A     2.01970       11.6110           0  -1.59660       1.16930    
      3629 BUTA     38       BUTA     DC2      DRUD     -2.19270      0.400000           0   0.00000       0.00000    
      3630 BUTA     38       BUTA     C3       CD32A     1.90870       11.6110           0  -1.59660       1.16930    
      3631 BUTA     38       BUTA     DC3      DRUD     -2.19270      0.400000           0   0.00000       0.00000    
      3632 BUTA     38       BUTA     C4       CD2O2A    2.36920       11.6110           0  -1.01600      0.899000    
      3633 BUTA     38       BUTA     DC4      DRUD     -1.74920      0.400000           0   0.00000       0.00000    
      3634 BUTA     38       BUTA     O1       OD2C2A    1.45090       15.5994           0 -0.699000       2.39900    
      3635 BUTA     38       BUTA     DO1      DRUD     -1.45090      0.400000           0   0.00000       0.00000    
      3636 BUTA     38       BUTA     O2       OD2C2A    1.45090       15.5994           0 -0.699000       2.39900    
      3637 BUTA     38       BUTA     DO2      DRUD     -1.45090      0.400000           0   0.00000       0.00000    
      3638 BUTA     38       BUTA     H1       HDA3A    0.900000E-01   1.00800           0   0.00000       0.00000    
      3639 BUTA     38       BUTA     H2       HDA3A    0.900000E-01   1.00800           0   0.00000       0.00000    
      3640 BUTA     38       BUTA     H3       HDA3A    0.900000E-01   1.00800           0   0.00000       0.00000    
      3641 BUTA     38       BUTA     H4       HDA2A    0.900000E-01   1.00800           0   0.00000       0.00000    
      3642 BUTA     38       BUTA     H5       HDA2A    0.900000E-01   1.00800           0   0.00000       0.00000    
      3643 BUTA     38       BUTA     H6       HDA2A    0.900000E-01   1.00800           0   0.00000       0.00000    
      3644 BUTA     38       BUTA     H7       HDA2A    0.900000E-01   1.00800           0   0.00000       0.00000    
      3645 BUTA     38       BUTA     H8       DUMH      0.00000       1.00800           0   0.00000       0.00000    
      3646 BUTA     38       BUTA     H9       DUMH      0.00000       1.00800           0   0.00000       0.00000    
      3647 BUTA     38       BUTA     LPO11    LPD     -0.380000       0.00000          -1   0.00000       0.00000    
      3648 BUTA     38       BUTA     LPO12    LPD     -0.380000       0.00000          -1   0.00000       0.00000    
      3649 BUTA     38       BUTA     LPO21    LPD     -0.380000       0.00000          -1   0.00000       0.00000    
      3650 BUTA     38       BUTA     LPO22    LPD     -0.380000       0.00000          -1   0.00000       0.00000    
      3651 BUTA     39       BUTA     C1       CD33A     2.06290       11.6110           0  -1.81190       1.18670    
      3652 BUTA     39       BUTA     DC1      DRUD     -2.33590      0.400000           0   0.00000       0.00000    
      3653 BUTA     39       BUTA     C2       CD32A     2.01970       11.6110           0  -1.59660       1.16930    
      3654 BUTA     39       BUTA     DC2      DRUD     -2.19270      0.400000           0   0.00000       0.00000    
      3655 BUTA     39       BUTA     C3       CD32A     1.90870       11.6110           0  -1.59660       1.16930    
      3656 BUTA     39       BUTA     DC3      DRUD     -2.19270      0.400000           0   0.00000       0.00000    
      3657 BUTA     39       BUTA     C4       CD2O2A    2.36920       11.6110           0  -1.01600      0.899000    
      3658 BUTA     39       BUTA     DC4      DRUD     -1.74920      0.400000           0   0.00000       0.00000    
      3659 BUTA     39       BUTA     O1       OD2C2A    1.45090       15.5994           0 -0.699000       2.39900    
      3660 BUTA     39       BUTA     DO1      DRUD     -1.45090      0.400000           0   0.00000       0.00000    
      3661 BUTA     39       BUTA     O2       OD2C2A    1.45090       15.5994           0 -0.699000       2.39900    
      3662 BUTA     39       BUTA     DO2      DRUD     -1.45090      0.400000           0   0.00000       0.00000    
      3663 BUTA     39       BUTA     H1       HDA3A    0.900000E-01   1.00800           0   0.00000       0.00000    
      3664 BUTA     39       BUTA     H2       HDA3A    0.900000E-01   1.00800           0   0.00000       0.00000    
      3665 BUTA     39       BUTA     H3       HDA3A    0.900000E-01   1.00800           0   0.00000       0.00000    
      3666 BUTA     39       BUTA     H4       HDA2A    0.900000E-01   1.00800           0   0.00000       0.00000    
      3667 BUTA     39       BUTA     H5       HDA2A    0.900000E-01   1.00800           0   0.00000       0.00000    
      3668 BUTA     39       BUTA     H6       HDA2A    0.900000E-01   1.00800           0   0.00000       0.00000    
      3669 BUTA     39       BUTA     H7       HDA2A    0.900000E-01   1.00800           0   0.00000       0.00000    
      3670 BUTA     39       BUTA     H8       DUMH      0.00000       1.00800           0   0.00000       0.00000    
      3671 BUTA     39       BUTA     H9       DUMH      0.00000       1.00800           0   0.00000       0.00000    
      3672 BUTA     39       BUTA     LPO11    LPD     -0.380000       0.00000          -1   0.00000       0.00000    
      3673 BUTA     39       BUTA     LPO12    LPD     -0.380000       0.00000          -1   0.00000       0.00000    
      3674 BUTA     39       BUTA     LPO21    LPD     -0.380000       0.00000          -1   0.00000       0.00000    
      3675 BUTA     39       BUTA     LPO22    LPD     -0.380000       0.00000          -1   0.00000       0.00000    
      3676 BUTA     40       BUTA     C1       CD33A     2.06290       11.6110           0  -1.81190       1.18670    
      3677 BUTA     40       BUTA     DC1      DRUD     -2.33590      0.400000           0   0.00000       0.00000    
      3678 BUTA     40       BUTA     C2       CD32A     2.01970       11.6110           0  -1.59660       1.16930    
      3679 BUTA     40       BUTA     DC2      DRUD     -2.19270      0.400000           0   0.00000       0.00000    
      3680 BUTA     40       BUTA     C3       CD32A     1.90870       11.6110           0  -1.59660       1.16930    
      3681 BUTA     40       BUTA     DC3      DRUD     -2.19270      0.400000           0   0.00000       0.00000    
      3682 BUTA     40       BUTA     C4       CD2O2A    2.36920       11.6110           0  -1.01600      0.899000    
      3683 BUTA     40       BUTA     DC4      DRUD     -1.74920      0.400000           0   0.00000       0.00000    
      3684 BUTA     40       BUTA     O1       OD2C2A    1.45090       15.5994           0 -0.699000       2.39900    
      3685 BUTA     40       BUTA     DO1      DRUD     -1.45090      0.400000           0   0.00000       0.00000    
      3686 BUTA     40       BUTA     O2       OD2C2A    1.45090       15.5994           0 -0.699000       2.39900    
      3687 BUTA     40       BUTA     DO2      DRUD     -1.45090      0.400000           0   0.00000       0.00000    
      3688 BUTA     40       BUTA     H1       HDA3A    0.900000E-01   1.00800           0   0.00000       0.00000    
      3689 BUTA     40       BUTA     H2       HDA3A    0.900000E-01   1.00800           0   0.00000       0.00000    
      3690 BUTA     40       BUTA     H3       HDA3A    0.900000E-01   1.00800           0   0.00000       0.00000    
      3691 BUTA     40       BUTA     H4       HDA2A    0.900000E-01   1.00800           0   0.00000       0.00000    
      3692 BUTA     40       BUTA     H5       HDA2A    0.900000E-01   1.00800           0   0.00000       0.00000    
      3693 BUTA     40       BUTA     H6       HDA2A    0.900000E-01   1.00800           0   0.00000       0.00000    
      3694 BUTA     40       BUTA     H7       HDA2A    0.900000E-01   1.00800           0   0.00000       0.00000    
      3695 BUTA     40       BUTA     H8       DUMH      0.00000       1.00800           0   0.00000       0.00000    
      3696 BUTA     40       BUTA     H9       DUMH      0.00000       1.00800           0   0.00000       0.00000    
      3697 BUTA     40       BUTA     LPO11    LPD     -0.380000       0.00000          -1   0.00000       0.00000    
      3698 BUTA     40       BUTA     LPO12    LPD     -0.380000       0.00000          -1   0.00000       0.00000    
      3699 BUTA     40       BUTA     LPO21    LPD     -0.380000       0.00000          -1   0.00000       0.00000    
      3700 BUTA     40       BUTA     LPO22    LPD     -0.380000       0.00000          -1   0.00000       0.00000    
      3701 BUTA     41       BUTA     C1       CD33A     2.06290       11.6110           0  -1.81190       1.18670    
      3702 BUTA     41       BUTA     DC1      DRUD     -2.33590      0.400000           0   0.00000       0.00000    
      3703 BUTA     41       BUTA     C2       CD32A     2.01970       11.6110           0  -1.59660       1.16930    
      3704 BUTA     41       BUTA     DC2      DRUD     -2.19270      0.400000           0   0.00000       0.00000    
      3705 BUTA     41       BUTA     C3       CD32A     1.90870       11.6110           0  -1.59660       1.16930    
      3706 BUTA     41       BUTA     DC3      DRUD     -2.19270      0.400000           0   0.00000       0.00000    
      3707 BUTA     41       BUTA     C4       CD2O2A    2.36920       11.6110           0  -1.01600      0.899000    
      3708 BUTA     41       BUTA     DC4      DRUD     -1.74920      0.400000           0   0.00000       0.00000    
      3709 BUTA     41       BUTA     O1       OD2C2A    1.45090       15.5994           0 -0.699000       2.39900    
      3710 BUTA     41       BUTA     DO1      DRUD     -1.45090      0.400000           0   0.00000       0.00000    
      3711 BUTA     41       BUTA     O2       OD2C2A    1.45090       15.5994           0 -0.699000       2.39900    
      3712 BUTA     41       BUTA     DO2      DRUD     -1.45090      0.400000           0   0.00000       0.00000    
      3713 BUTA     41       BUTA     H1       HDA3A    0.900000E-01   1.00800           0   0.00000       0.00000    
      3714 BUTA     41       BUTA     H2       HDA3A    0.900000E-01   1.00800           0   0.00000       0.00000    
      3715 BUTA     41       BUTA     H3       HDA3A    0.900000E-01   1.00800           0   0.00000       0.00000    
      3716 BUTA     41       BUTA     H4       HDA2A    0.900000E-01   1.00800           0   0.00000       0.00000    
      3717 BUTA     41       BUTA     H5       HDA2A    0.900000E-01   1.00800           0   0.00000       0.00000    
      3718 BUTA     41       BUTA     H6       HDA2A    0.900000E-01   1.00800           0   0.00000       0.00000    
      3719 BUTA     41       BUTA     H7       HDA2A    0.900000E-01   1.00800           0   0.00000       0.00000    
      3720 BUTA     41       BUTA     H8       DUMH      0.00000       1.00800           0   0.00000       0.00000    
      3721 BUTA     41       BUTA     H9       DUMH      0.00000       1.00800           0   0.00000       0.00000    
      3722 BUTA     41       BUTA     LPO11    LPD     -0.380000       0.00000          -1   0.00000       0.00000    
      3723 BUTA     41       BUTA     LPO12    LPD     -0.380000       0.00000          -1   0.00000       0.00000    
      3724 BUTA     41       BUTA     LPO21    LPD     -0.380000       0.00000          -1   0.00000       0.00000    
      3725 BUTA     41       BUTA     LPO22    LPD     -0.380000       0.00000          -1   0.00000       0.00000    
      3726 BUTA     42       BUTA     C1       CD33A     2.06290       11.6110           0  -1.81190       1.18670    
      3727 BUTA     42       BUTA     DC1      DRUD     -2.33590      0.400000           0   0.00000       0.00000    
      3728 BUTA     42       BUTA     C2       CD32A     2.01970       11.6110           0  -1.59660       1.16930    
      3729 BUTA     42       BUTA     DC2      DRUD     -2.19270      0.400000           0   0.00000       0.00000    
      3730 BUTA     42       BUTA     C3       CD32A     1.90870       11.6110           0  -1.59660       1.16930    
      3731 BUTA     42       BUTA     DC3      DRUD     -2.19270      0.400000           0   0.00000       0.00000    
      3732 BUTA     42       BUTA     C4       CD2O2A    2.36920       11.6110           0  -1.01600      0.899000    
      3733 BUTA     42       BUTA     DC4      DRUD     -1.74920      0.400000           0   0.00000       0.00000    
      3734 BUTA     42       BUTA     O1       OD2C2A    1.45090       15.5994           0 -0.699000       2.39900    
      3735 BUTA     42       BUTA     DO1      DRUD     -1.45090      0.400000           0   0.00000       0.00000    
      3736 BUTA     42       BUTA     O2       OD2C2A    1.45090       15.5994           0 -0.699000       2.39900    
      3737 BUTA     42       BUTA     DO2      DRUD     -1.45090      0.400000           0   0.00000       0.00000    
      3738 BUTA     42       BUTA     H1       HDA3A    0.900000E-01   1.00800           0   0.00000       0.00000    
      3739 BUTA     42       BUTA     H2       HDA3A    0.900000E-01   1.00800           0   0.00000       0.00000    
      3740 BUTA     42       BUTA     H3       HDA3A    0.900000E-01   1.00800           0   0.00000       0.00000    
      3741 BUTA     42       BUTA     H4       HDA2A    0.900000E-01   1.00800           0   0.00000       0.00000    
      3742 BUTA     42       BUTA     H5       HDA2A    0.900000E-01   1.00800           0   0.00000       0.00000    
      3743 BUTA     42       BUTA     H6       HDA2A    0.900000E-01   1.00800           0   0.00000       0.00000    
      3744 BUTA     42       BUTA     H7       HDA2A    0.900000E-01   1.00800           0   0.00000       0.00000    
      3745 BUTA     42       BUTA     H8       DUMH      0.00000       1.00800           0   0.00000       0.00000    
      3746 BUTA     42       BUTA     H9       DUMH      0.00000       1.00800           0   0.00000       0.00000    
      3747 BUTA     42       BUTA     LPO11    LPD     -0.380000       0.00000          -1   0.00000       0.00000    
      3748 BUTA     42       BUTA     LPO12    LPD     -0.380000       0.00000          -1   0.00000       0.00000    
      3749 BUTA     42       BUTA     LPO21    LPD     -0.380000       0.00000          -1   0.00000       0.00000    
      3750 BUTA     42       BUTA     LPO22    LPD     -0.380000       0.00000          -1   0.00000       0.00000    
      3751 BUTA     43       BUTA     C1       CD33A     2.06290       11.6110           0  -1.81190       1.18670    
      3752 BUTA     43       BUTA     DC1      DRUD     -2.33590      0.400000           0   0.00000       0.00000    
      3753 BUTA     43       BUTA     C2       CD32A     2.01970       11.6110           0  -1.59660       1.16930    
      3754 BUTA     43       BUTA     DC2      DRUD     -2.19270      0.400000           0   0.00000       0.00000    
      3755 BUTA     43       BUTA     C3       CD32A     1.90870       11.6110           0  -1.59660       1.16930    
      3756 BUTA     43       BUTA     DC3      DRUD     -2.19270      0.400000           0   0.00000       0.00000    
      3757 BUTA     43       BUTA     C4       CD2O2A    2.36920       11.6110           0  -1.01600      0.899000    
      3758 BUTA     43       BUTA     DC4      DRUD     -1.74920      0.400000           0   0.00000       0.00000    
      3759 BUTA     43       BUTA     O1       OD2C2A    1.45090       15.5994           0 -0.699000       2.39900    
      3760 BUTA     43       BUTA     DO1      DRUD     -1.45090      0.400000           0   0.00000       0.00000    
      3761 BUTA     43       BUTA     O2       OD2C2A    1.45090       15.5994           0 -0.699000       2.39900    
      3762 BUTA     43       BUTA     DO2      DRUD     -1.45090      0.400000           0   0.00000       0.00000    
      3763 BUTA     43       BUTA     H1       HDA3A    0.900000E-01   1.00800           0   0.00000       0.00000    
      3764 BUTA     43       BUTA     H2       HDA3A    0.900000E-01   1.00800           0   0.00000       0.00000    
      3765 BUTA     43       BUTA     H3       HDA3A    0.900000E-01   1.00800           0   0.00000       0.00000    
      3766 BUTA     43       BUTA     H4       HDA2A    0.900000E-01   1.00800           0   0.00000       0.00000    
      3767 BUTA     43       BUTA     H5       HDA2A    0.900000E-01   1.00800           0   0.00000       0.00000    
      3768 BUTA     43       BUTA     H6       HDA2A    0.900000E-01   1.00800           0   0.00000       0.00000    
      3769 BUTA     43       BUTA     H7       HDA2A    0.900000E-01   1.00800           0   0.00000       0.00000    
      3770 BUTA     43       BUTA     H8       DUMH      0.00000       1.00800           0   0.00000       0.00000    
      3771 BUTA     43       BUTA     H9       DUMH      0.00000       1.00800           0   0.00000       0.00000    
      3772 BUTA     43       BUTA     LPO11    LPD     -0.380000       0.00000          -1   0.00000       0.00000    
      3773 BUTA     43       BUTA     LPO12    LPD     -0.380000       0.00000          -1   0.00000       0.00000    
      3774 BUTA     43       BUTA     LPO21    LPD     -0.380000       0.00000          -1   0.00000       0.00000    
      3775 BUTA     43       BUTA     LPO22    LPD     -0.380000       0.00000          -1   0.00000       0.00000    
      3776 BUTA     44       BUTA     C1       CD33A     2.06290       11.6110           0  -1.81190       1.18670    
      3777 BUTA     44       BUTA     DC1      DRUD     -2.33590      0.400000           0   0.00000       0.00000    
      3778 BUTA     44       BUTA     C2       CD32A     2.01970       11.6110           0  -1.59660       1.16930    
      3779 BUTA     44       BUTA     DC2      DRUD     -2.19270      0.400000           0   0.00000       0.00000    
      3780 BUTA     44       BUTA     C3       CD32A     1.90870       11.6110           0  -1.59660       1.16930    
      3781 BUTA     44       BUTA     DC3      DRUD     -2.19270      0.400000           0   0.00000       0.00000    
      3782 BUTA     44       BUTA     C4       CD2O2A    2.36920       11.6110           0  -1.01600      0.899000    
      3783 BUTA     44       BUTA     DC4      DRUD     -1.74920      0.400000           0   0.00000       0.00000    
      3784 BUTA     44       BUTA     O1       OD2C2A    1.45090       15.5994           0 -0.699000       2.39900    
      3785 BUTA     44       BUTA     DO1      DRUD     -1.45090      0.400000           0   0.00000       0.00000    
      3786 BUTA     44       BUTA     O2       OD2C2A    1.45090       15.5994           0 -0.699000       2.39900    
      3787 BUTA     44       BUTA     DO2      DRUD     -1.45090      0.400000           0   0.00000       0.00000    
      3788 BUTA     44       BUTA     H1       HDA3A    0.900000E-01   1.00800           0   0.00000       0.00000    
      3789 BUTA     44       BUTA     H2       HDA3A    0.900000E-01   1.00800           0   0.00000       0.00000    
      3790 BUTA     44       BUTA     H3       HDA3A    0.900000E-01   1.00800           0   0.00000       0.00000    
      3791 BUTA     44       BUTA     H4       HDA2A    0.900000E-01   1.00800           0   0.00000       0.00000    
      3792 BUTA     44       BUTA     H5       HDA2A    0.900000E-01   1.00800           0   0.00000       0.00000    
      3793 BUTA     44       BUTA     H6       HDA2A    0.900000E-01   1.00800           0   0.00000       0.00000    
      3794 BUTA     44       BUTA     H7       HDA2A    0.900000E-01   1.00800           0   0.00000       0.00000    
      3795 BUTA     44       BUTA     H8       DUMH      0.00000       1.00800           0   0.00000       0.00000    
      3796 BUTA     44       BUTA     H9       DUMH      0.00000       1.00800           0   0.00000       0.00000    
      3797 BUTA     44       BUTA     LPO11    LPD     -0.380000       0.00000          -1   0.00000       0.00000    
      3798 BUTA     44       BUTA     LPO12    LPD     -0.380000       0.00000          -1   0.00000       0.00000    
      3799 BUTA     44       BUTA     LPO21    LPD     -0.380000       0.00000          -1   0.00000       0.00000    
      3800 BUTA     44       BUTA     LPO22    LPD     -0.380000       0.00000          -1   0.00000       0.00000    
      3801 BUTA     45       BUTA     C1       CD33A     2.06290       11.6110           0  -1.81190       1.18670    
      3802 BUTA     45       BUTA     DC1      DRUD     -2.33590      0.400000           0   0.00000       0.00000    
      3803 BUTA     45       BUTA     C2       CD32A     2.01970       11.6110           0  -1.59660       1.16930    
      3804 BUTA     45       BUTA     DC2      DRUD     -2.19270      0.400000           0   0.00000       0.00000    
      3805 BUTA     45       BUTA     C3       CD32A     1.90870       11.6110           0  -1.59660       1.16930    
      3806 BUTA     45       BUTA     DC3      DRUD     -2.19270      0.400000           0   0.00000       0.00000    
      3807 BUTA     45       BUTA     C4       CD2O2A    2.36920       11.6110           0  -1.01600      0.899000    
      3808 BUTA     45       BUTA     DC4      DRUD     -1.74920      0.400000           0   0.00000       0.00000    
      3809 BUTA     45       BUTA     O1       OD2C2A    1.45090       15.5994           0 -0.699000       2.39900    
      3810 BUTA     45       BUTA     DO1      DRUD     -1.45090      0.400000           0   0.00000       0.00000    
      3811 BUTA     45       BUTA     O2       OD2C2A    1.45090       15.5994           0 -0.699000       2.39900    
      3812 BUTA     45       BUTA     DO2      DRUD     -1.45090      0.400000           0   0.00000       0.00000    
      3813 BUTA     45       BUTA     H1       HDA3A    0.900000E-01   1.00800           0   0.00000       0.00000    
      3814 BUTA     45       BUTA     H2       HDA3A    0.900000E-01   1.00800           0   0.00000       0.00000    
      3815 BUTA     45       BUTA     H3       HDA3A    0.900000E-01   1.00800           0   0.00000       0.00000    
      3816 BUTA     45       BUTA     H4       HDA2A    0.900000E-01   1.00800           0   0.00000       0.00000    
      3817 BUTA     45       BUTA     H5       HDA2A    0.900000E-01   1.00800           0   0.00000       0.00000    
      3818 BUTA     45       BUTA     H6       HDA2A    0.900000E-01   1.00800           0   0.00000       0.00000    
      3819 BUTA     45       BUTA     H7       HDA2A    0.900000E-01   1.00800           0   0.00000       0.00000    
      3820 BUTA     45       BUTA     H8       DUMH      0.00000       1.00800           0   0.00000       0.00000    
      3821 BUTA     45       BUTA     H9       DUMH      0.00000       1.00800           0   0.00000       0.00000    
      3822 BUTA     45       BUTA     LPO11    LPD     -0.380000       0.00000          -1   0.00000       0.00000    
      3823 BUTA     45       BUTA     LPO12    LPD     -0.380000       0.00000          -1   0.00000       0.00000    
      3824 BUTA     45       BUTA     LPO21    LPD     -0.380000       0.00000          -1   0.00000       0.00000    
      3825 BUTA     45       BUTA     LPO22    LPD     -0.380000       0.00000          -1   0.00000       0.00000    
      3826 BUTA     46       BUTA     C1       CD33A     2.06290       11.6110           0  -1.81190       1.18670    
      3827 BUTA     46       BUTA     DC1      DRUD     -2.33590      0.400000           0   0.00000       0.00000    
      3828 BUTA     46       BUTA     C2       CD32A     2.01970       11.6110           0  -1.59660       1.16930    
      3829 BUTA     46       BUTA     DC2      DRUD     -2.19270      0.400000           0   0.00000       0.00000    
      3830 BUTA     46       BUTA     C3       CD32A     1.90870       11.6110           0  -1.59660       1.16930    
      3831 BUTA     46       BUTA     DC3      DRUD     -2.19270      0.400000           0   0.00000       0.00000    
      3832 BUTA     46       BUTA     C4       CD2O2A    2.36920       11.6110           0  -1.01600      0.899000    
      3833 BUTA     46       BUTA     DC4      DRUD     -1.74920      0.400000           0   0.00000       0.00000    
      3834 BUTA     46       BUTA     O1       OD2C2A    1.45090       15.5994           0 -0.699000       2.39900    
      3835 BUTA     46       BUTA     DO1      DRUD     -1.45090      0.400000           0   0.00000       0.00000    
      3836 BUTA     46       BUTA     O2       OD2C2A    1.45090       15.5994           0 -0.699000       2.39900    
      3837 BUTA     46       BUTA     DO2      DRUD     -1.45090      0.400000           0   0.00000       0.00000    
      3838 BUTA     46       BUTA     H1       HDA3A    0.900000E-01   1.00800           0   0.00000       0.00000    
      3839 BUTA     46       BUTA     H2       HDA3A    0.900000E-01   1.00800           0   0.00000       0.00000    
      3840 BUTA     46       BUTA     H3       HDA3A    0.900000E-01   1.00800           0   0.00000       0.00000    
      3841 BUTA     46       BUTA     H4       HDA2A    0.900000E-01   1.00800           0   0.00000       0.00000    
      3842 BUTA     46       BUTA     H5       HDA2A    0.900000E-01   1.00800           0   0.00000       0.00000    
      3843 BUTA     46       BUTA     H6       HDA2A    0.900000E-01   1.00800           0   0.00000       0.00000    
      3844 BUTA     46       BUTA     H7       HDA2A    0.900000E-01   1.00800           0   0.00000       0.00000    
      3845 BUTA     46       BUTA     H8       DUMH      0.00000       1.00800           0   0.00000       0.00000    
      3846 BUTA     46       BUTA     H9       DUMH      0.00000       1.00800           0   0.00000       0.00000    
      3847 BUTA     46       BUTA     LPO11    LPD     -0.380000       0.00000          -1   0.00000       0.00000    
      3848 BUTA     46       BUTA     LPO12    LPD     -0.380000       0.00000          -1   0.00000       0.00000    
      3849 BUTA     46       BUTA     LPO21    LPD     -0.380000       0.00000          -1   0.00000       0.00000    
      3850 BUTA     46       BUTA     LPO22    LPD     -0.380000       0.00000          -1   0.00000       0.00000    
      3851 BUTA     47       BUTA     C1       CD33A     2.06290       11.6110           0  -1.81190       1.18670    
      3852 BUTA     47       BUTA     DC1      DRUD     -2.33590      0.400000           0   0.00000       0.00000    
      3853 BUTA     47       BUTA     C2       CD32A     2.01970       11.6110           0  -1.59660       1.16930    
      3854 BUTA     47       BUTA     DC2      DRUD     -2.19270      0.400000           0   0.00000       0.00000    
      3855 BUTA     47       BUTA     C3       CD32A     1.90870       11.6110           0  -1.59660       1.16930    
      3856 BUTA     47       BUTA     DC3      DRUD     -2.19270      0.400000           0   0.00000       0.00000    
      3857 BUTA     47       BUTA     C4       CD2O2A    2.36920       11.6110           0  -1.01600      0.899000    
      3858 BUTA     47       BUTA     DC4      DRUD     -1.74920      0.400000           0   0.00000       0.00000    
      3859 BUTA     47       BUTA     O1       OD2C2A    1.45090       15.5994           0 -0.699000       2.39900    
      3860 BUTA     47       BUTA     DO1      DRUD     -1.45090      0.400000           0   0.00000       0.00000    
      3861 BUTA     47       BUTA     O2       OD2C2A    1.45090       15.5994           0 -0.699000       2.39900    
      3862 BUTA     47       BUTA     DO2      DRUD     -1.45090      0.400000           0   0.00000       0.00000    
      3863 BUTA     47       BUTA     H1       HDA3A    0.900000E-01   1.00800           0   0.00000       0.00000    
      3864 BUTA     47       BUTA     H2       HDA3A    0.900000E-01   1.00800           0   0.00000       0.00000    
      3865 BUTA     47       BUTA     H3       HDA3A    0.900000E-01   1.00800           0   0.00000       0.00000    
      3866 BUTA     47       BUTA     H4       HDA2A    0.900000E-01   1.00800           0   0.00000       0.00000    
      3867 BUTA     47       BUTA     H5       HDA2A    0.900000E-01   1.00800           0   0.00000       0.00000    
      3868 BUTA     47       BUTA     H6       HDA2A    0.900000E-01   1.00800           0   0.00000       0.00000    
      3869 BUTA     47       BUTA     H7       HDA2A    0.900000E-01   1.00800           0   0.00000       0.00000    
      3870 BUTA     47       BUTA     H8       DUMH      0.00000       1.00800           0   0.00000       0.00000    
      3871 BUTA     47       BUTA     H9       DUMH      0.00000       1.00800           0   0.00000       0.00000    
      3872 BUTA     47       BUTA     LPO11    LPD     -0.380000       0.00000          -1   0.00000       0.00000    
      3873 BUTA     47       BUTA     LPO12    LPD     -0.380000       0.00000          -1   0.00000       0.00000    
      3874 BUTA     47       BUTA     LPO21    LPD     -0.380000       0.00000          -1   0.00000       0.00000    
      3875 BUTA     47       BUTA     LPO22    LPD     -0.380000       0.00000          -1   0.00000       0.00000    
      3876 BUTA     48       BUTA     C1       CD33A     2.06290       11.6110           0  -1.81190       1.18670    
      3877 BUTA     48       BUTA     DC1      DRUD     -2.33590      0.400000           0   0.00000       0.00000    
      3878 BUTA     48       BUTA     C2       CD32A     2.01970       11.6110           0  -1.59660       1.16930    
      3879 BUTA     48       BUTA     DC2      DRUD     -2.19270      0.400000           0   0.00000       0.00000    
      3880 BUTA     48       BUTA     C3       CD32A     1.90870       11.6110           0  -1.59660       1.16930    
      3881 BUTA     48       BUTA     DC3      DRUD     -2.19270      0.400000           0   0.00000       0.00000    
      3882 BUTA     48       BUTA     C4       CD2O2A    2.36920       11.6110           0  -1.01600      0.899000    
      3883 BUTA     48       BUTA     DC4      DRUD     -1.74920      0.400000           0   0.00000       0.00000    
      3884 BUTA     48       BUTA     O1       OD2C2A    1.45090       15.5994           0 -0.699000       2.39900    
      3885 BUTA     48       BUTA     DO1      DRUD     -1.45090      0.400000           0   0.00000       0.00000    
      3886 BUTA     48       BUTA     O2       OD2C2A    1.45090       15.5994           0 -0.699000       2.39900    
      3887 BUTA     48       BUTA     DO2      DRUD     -1.45090      0.400000           0   0.00000       0.00000    
      3888 BUTA     48       BUTA     H1       HDA3A    0.900000E-01   1.00800           0   0.00000       0.00000    
      3889 BUTA     48       BUTA     H2       HDA3A    0.900000E-01   1.00800           0   0.00000       0.00000    
      3890 BUTA     48       BUTA     H3       HDA3A    0.900000E-01   1.00800           0   0.00000       0.00000    
      3891 BUTA     48       BUTA     H4       HDA2A    0.900000E-01   1.00800           0   0.00000       0.00000    
      3892 BUTA     48       BUTA     H5       HDA2A    0.900000E-01   1.00800           0   0.00000       0.00000    
      3893 BUTA     48       BUTA     H6       HDA2A    0.900000E-01   1.00800           0   0.00000       0.00000    
      3894 BUTA     48       BUTA     H7       HDA2A    0.900000E-01   1.00800           0   0.00000       0.00000    
      3895 BUTA     48       BUTA     H8       DUMH      0.00000       1.00800           0   0.00000       0.00000    
      3896 BUTA     48       BUTA     H9       DUMH      0.00000       1.00800           0   0.00000       0.00000    
      3897 BUTA     48       BUTA     LPO11    LPD     -0.380000       0.00000          -1   0.00000       0.00000    
      3898 BUTA     48       BUTA     LPO12    LPD     -0.380000       0.00000          -1   0.00000       0.00000    
      3899 BUTA     48       BUTA     LPO21    LPD     -0.380000       0.00000          -1   0.00000       0.00000    
      3900 BUTA     48       BUTA     LPO22    LPD     -0.380000       0.00000          -1   0.00000       0.00000    
      3901 BUTA     49       BUTA     C1       CD33A     2.06290       11.6110           0  -1.81190       1.18670    
      3902 BUTA     49       BUTA     DC1      DRUD     -2.33590      0.400000           0   0.00000       0.00000    
      3903 BUTA     49       BUTA     C2       CD32A     2.01970       11.6110           0  -1.59660       1.16930    
      3904 BUTA     49       BUTA     DC2      DRUD     -2.19270      0.400000           0   0.00000       0.00000    
      3905 BUTA     49       BUTA     C3       CD32A     1.90870       11.6110           0  -1.59660       1.16930    
      3906 BUTA     49       BUTA     DC3      DRUD     -2.19270      0.400000           0   0.00000       0.00000    
      3907 BUTA     49       BUTA     C4       CD2O2A    2.36920       11.6110           0  -1.01600      0.899000    
      3908 BUTA     49       BUTA     DC4      DRUD     -1.74920      0.400000           0   0.00000       0.00000    
      3909 BUTA     49       BUTA     O1       OD2C2A    1.45090       15.5994           0 -0.699000       2.39900    
      3910 BUTA     49       BUTA     DO1      DRUD     -1.45090      0.400000           0   0.00000       0.00000    
      3911 BUTA     49       BUTA     O2       OD2C2A    1.45090       15.5994           0 -0.699000       2.39900    
      3912 BUTA     49       BUTA     DO2      DRUD     -1.45090      0.400000           0   0.00000       0.00000    
      3913 BUTA     49       BUTA     H1       HDA3A    0.900000E-01   1.00800           0   0.00000       0.00000    
      3914 BUTA     49       BUTA     H2       HDA3A    0.900000E-01   1.00800           0   0.00000       0.00000    
      3915 BUTA     49       BUTA     H3       HDA3A    0.900000E-01   1.00800           0   0.00000       0.00000    
      3916 BUTA     49       BUTA     H4       HDA2A    0.900000E-01   1.00800           0   0.00000       0.00000    
      3917 BUTA     49       BUTA     H5       HDA2A    0.900000E-01   1.00800           0   0.00000       0.00000    
      3918 BUTA     49       BUTA     H6       HDA2A    0.900000E-01   1.00800           0   0.00000       0.00000    
      3919 BUTA     49       BUTA     H7       HDA2A    0.900000E-01   1.00800           0   0.00000       0.00000    
      3920 BUTA     49       BUTA     H8       DUMH      0.00000       1.00800           0   0.00000       0.00000    
      3921 BUTA     49       BUTA     H9       DUMH      0.00000       1.00800           0   0.00000       0.00000    
      3922 BUTA     49       BUTA     LPO11    LPD     -0.380000       0.00000          -1   0.00000       0.00000    
      3923 BUTA     49       BUTA     LPO12    LPD     -0.380000       0.00000          -1   0.00000       0.00000    
      3924 BUTA     49       BUTA     LPO21    LPD     -0.380000       0.00000          -1   0.00000       0.00000    
      3925 BUTA     49       BUTA     LPO22    LPD     -0.380000       0.00000          -1   0.00000       0.00000    
      3926 BUTA     50       BUTA     C1       CD33A     2.06290       11.6110           0  -1.81190       1.18670    
      3927 BUTA     50       BUTA     DC1      DRUD     -2.33590      0.400000           0   0.00000       0.00000    
      3928 BUTA     50       BUTA     C2       CD32A     2.01970       11.6110           0  -1.59660       1.16930    
      3929 BUTA     50       BUTA     DC2      DRUD     -2.19270      0.400000           0   0.00000       0.00000    
      3930 BUTA     50       BUTA     C3       CD32A     1.90870       11.6110           0  -1.59660       1.16930    
      3931 BUTA     50       BUTA     DC3      DRUD     -2.19270      0.400000           0   0.00000       0.00000    
      3932 BUTA     50       BUTA     C4       CD2O2A    2.36920       11.6110           0  -1.01600      0.899000    
      3933 BUTA     50       BUTA     DC4      DRUD     -1.74920      0.400000           0   0.00000       0.00000    
      3934 BUTA     50       BUTA     O1       OD2C2A    1.45090       15.5994           0 -0.699000       2.39900    
      3935 BUTA     50       BUTA     DO1      DRUD     -1.45090      0.400000           0   0.00000       0.00000    
      3936 BUTA     50       BUTA     O2       OD2C2A    1.45090       15.5994           0 -0.699000       2.39900    
      3937 BUTA     50       BUTA     DO2      DRUD     -1.45090      0.400000           0   0.00000       0.00000    
      3938 BUTA     50       BUTA     H1       HDA3A    0.900000E-01   1.00800           0   0.00000       0.00000    
      3939 BUTA     50       BUTA     H2       HDA3A    0.900000E-01   1.00800           0   0.00000       0.00000    
      3940 BUTA     50       BUTA     H3       HDA3A    0.900000E-01   1.00800           0   0.00000       0.00000    
      3941 BUTA     50       BUTA     H4       HDA2A    0.900000E-01   1.00800           0   0.00000       0.00000    
      3942 BUTA     50       BUTA     H5       HDA2A    0.900000E-01   1.00800           0   0.00000       0.00000    
      3943 BUTA     50       BUTA     H6       HDA2A    0.900000E-01   1.00800           0   0.00000       0.00000    
      3944 BUTA     50       BUTA     H7       HDA2A    0.900000E-01   1.00800           0   0.00000       0.00000    
      3945 BUTA     50       BUTA     H8       DUMH      0.00000       1.00800           0   0.00000       0.00000    
      3946 BUTA     50       BUTA     H9       DUMH      0.00000       1.00800           0   0.00000       0.00000    
      3947 BUTA     50       BUTA     LPO11    LPD     -0.380000       0.00000          -1   0.00000       0.00000    
      3948 BUTA     50       BUTA     LPO12    LPD     -0.380000       0.00000          -1   0.00000       0.00000    
      3949 BUTA     50       BUTA     LPO21    LPD     -0.380000       0.00000          -1   0.00000       0.00000    
      3950 BUTA     50       BUTA     LPO22    LPD     -0.380000       0.00000          -1   0.00000       0.00000    
      3951 BUTA     51       BUTA     C1       CD33A     2.06290       11.6110           0  -1.81190       1.18670    
      3952 BUTA     51       BUTA     DC1      DRUD     -2.33590      0.400000           0   0.00000       0.00000    
      3953 BUTA     51       BUTA     C2       CD32A     2.01970       11.6110           0  -1.59660       1.16930    
      3954 BUTA     51       BUTA     DC2      DRUD     -2.19270      0.400000           0   0.00000       0.00000    
      3955 BUTA     51       BUTA     C3       CD32A     1.90870       11.6110           0  -1.59660       1.16930    
      3956 BUTA     51       BUTA     DC3      DRUD     -2.19270      0.400000           0   0.00000       0.00000    
      3957 BUTA     51       BUTA     C4       CD2O2A    2.36920       11.6110           0  -1.01600      0.899000    
      3958 BUTA     51       BUTA     DC4      DRUD     -1.74920      0.400000           0   0.00000       0.00000    
      3959 BUTA     51       BUTA     O1       OD2C2A    1.45090       15.5994           0 -0.699000       2.39900    
      3960 BUTA     51       BUTA     DO1      DRUD     -1.45090      0.400000           0   0.00000       0.00000    
      3961 BUTA     51       BUTA     O2       OD2C2A    1.45090       15.5994           0 -0.699000       2.39900    
      3962 BUTA     51       BUTA     DO2      DRUD     -1.45090      0.400000           0   0.00000       0.00000    
      3963 BUTA     51       BUTA     H1       HDA3A    0.900000E-01   1.00800           0   0.00000       0.00000    
      3964 BUTA     51       BUTA     H2       HDA3A    0.900000E-01   1.00800           0   0.00000       0.00000    
      3965 BUTA     51       BUTA     H3       HDA3A    0.900000E-01   1.00800           0   0.00000       0.00000    
      3966 BUTA     51       BUTA     H4       HDA2A    0.900000E-01   1.00800           0   0.00000       0.00000    
      3967 BUTA     51       BUTA     H5       HDA2A    0.900000E-01   1.00800           0   0.00000       0.00000    
      3968 BUTA     51       BUTA     H6       HDA2A    0.900000E-01   1.00800           0   0.00000       0.00000    
      3969 BUTA     51       BUTA     H7       HDA2A    0.900000E-01   1.00800           0   0.00000       0.00000    
      3970 BUTA     51       BUTA     H8       DUMH      0.00000       1.00800           0   0.00000       0.00000    
      3971 BUTA     51       BUTA     H9       DUMH      0.00000       1.00800           0   0.00000       0.00000    
      3972 BUTA     51       BUTA     LPO11    LPD     -0.380000       0.00000          -1   0.00000       0.00000    
      3973 BUTA     51       BUTA     LPO12    LPD     -0.380000       0.00000          -1   0.00000       0.00000    
      3974 BUTA     51       BUTA     LPO21    LPD     -0.380000       0.00000          -1   0.00000       0.00000    
      3975 BUTA     51       BUTA     LPO22    LPD     -0.380000       0.00000          -1   0.00000       0.00000    
      3976 BUTA     52       BUTA     C1       CD33A     2.06290       11.6110           0  -1.81190       1.18670    
      3977 BUTA     52       BUTA     DC1      DRUD     -2.33590      0.400000           0   0.00000       0.00000    
      3978 BUTA     52       BUTA     C2       CD32A     2.01970       11.6110           0  -1.59660       1.16930    
      3979 BUTA     52       BUTA     DC2      DRUD     -2.19270      0.400000           0   0.00000       0.00000    
      3980 BUTA     52       BUTA     C3       CD32A     1.90870       11.6110           0  -1.59660       1.16930    
      3981 BUTA     52       BUTA     DC3      DRUD     -2.19270      0.400000           0   0.00000       0.00000    
      3982 BUTA     52       BUTA     C4       CD2O2A    2.36920       11.6110           0  -1.01600      0.899000    
      3983 BUTA     52       BUTA     DC4      DRUD     -1.74920      0.400000           0   0.00000       0.00000    
      3984 BUTA     52       BUTA     O1       OD2C2A    1.45090       15.5994           0 -0.699000       2.39900    
      3985 BUTA     52       BUTA     DO1      DRUD     -1.45090      0.400000           0   0.00000       0.00000    
      3986 BUTA     52       BUTA     O2       OD2C2A    1.45090       15.5994           0 -0.699000       2.39900    
      3987 BUTA     52       BUTA     DO2      DRUD     -1.45090      0.400000           0   0.00000       0.00000    
      3988 BUTA     52       BUTA     H1       HDA3A    0.900000E-01   1.00800           0   0.00000       0.00000    
      3989 BUTA     52       BUTA     H2       HDA3A    0.900000E-01   1.00800           0   0.00000       0.00000    
      3990 BUTA     52       BUTA     H3       HDA3A    0.900000E-01   1.00800           0   0.00000       0.00000    
      3991 BUTA     52       BUTA     H4       HDA2A    0.900000E-01   1.00800           0   0.00000       0.00000    
      3992 BUTA     52       BUTA     H5       HDA2A    0.900000E-01   1.00800           0   0.00000       0.00000    
      3993 BUTA     52       BUTA     H6       HDA2A    0.900000E-01   1.00800           0   0.00000       0.00000    
      3994 BUTA     52       BUTA     H7       HDA2A    0.900000E-01   1.00800           0   0.00000       0.00000    
      3995 BUTA     52       BUTA     H8       DUMH      0.00000       1.00800           0   0.00000       0.00000    
      3996 BUTA     52       BUTA     H9       DUMH      0.00000       1.00800           0   0.00000       0.00000    
      3997 BUTA     52       BUTA     LPO11    LPD     -0.380000       0.00000          -1   0.00000       0.00000    
      3998 BUTA     52       BUTA     LPO12    LPD     -0.380000       0.00000          -1   0.00000       0.00000    
      3999 BUTA     52       BUTA     LPO21    LPD     -0.380000       0.00000          -1   0.00000       0.00000    
      4000 BUTA     52       BUTA     LPO22    LPD     -0.380000       0.00000          -1   0.00000       0.00000    
      4001 BUTA     53       BUTA     C1       CD33A     2.06290       11.6110           0  -1.81190       1.18670    
      4002 BUTA     53       BUTA     DC1      DRUD     -2.33590      0.400000           0   0.00000       0.00000    
      4003 BUTA     53       BUTA     C2       CD32A     2.01970       11.6110           0  -1.59660       1.16930    
      4004 BUTA     53       BUTA     DC2      DRUD     -2.19270      0.400000           0   0.00000       0.00000    
      4005 BUTA     53       BUTA     C3       CD32A     1.90870       11.6110           0  -1.59660       1.16930    
      4006 BUTA     53       BUTA     DC3      DRUD     -2.19270      0.400000           0   0.00000       0.00000    
      4007 BUTA     53       BUTA     C4       CD2O2A    2.36920       11.6110           0  -1.01600      0.899000    
      4008 BUTA     53       BUTA     DC4      DRUD     -1.74920      0.400000           0   0.00000       0.00000    
      4009 BUTA     53       BUTA     O1       OD2C2A    1.45090       15.5994           0 -0.699000       2.39900    
      4010 BUTA     53       BUTA     DO1      DRUD     -1.45090      0.400000           0   0.00000       0.00000    
      4011 BUTA     53       BUTA     O2       OD2C2A    1.45090       15.5994           0 -0.699000       2.39900    
      4012 BUTA     53       BUTA     DO2      DRUD     -1.45090      0.400000           0   0.00000       0.00000    
      4013 BUTA     53       BUTA     H1       HDA3A    0.900000E-01   1.00800           0   0.00000       0.00000    
      4014 BUTA     53       BUTA     H2       HDA3A    0.900000E-01   1.00800           0   0.00000       0.00000    
      4015 BUTA     53       BUTA     H3       HDA3A    0.900000E-01   1.00800           0   0.00000       0.00000    
      4016 BUTA     53       BUTA     H4       HDA2A    0.900000E-01   1.00800           0   0.00000       0.00000    
      4017 BUTA     53       BUTA     H5       HDA2A    0.900000E-01   1.00800           0   0.00000       0.00000    
      4018 BUTA     53       BUTA     H6       HDA2A    0.900000E-01   1.00800           0   0.00000       0.00000    
      4019 BUTA     53       BUTA     H7       HDA2A    0.900000E-01   1.00800           0   0.00000       0.00000    
      4020 BUTA     53       BUTA     H8       DUMH      0.00000       1.00800           0   0.00000       0.00000    
      4021 BUTA     53       BUTA     H9       DUMH      0.00000       1.00800           0   0.00000       0.00000    
      4022 BUTA     53       BUTA     LPO11    LPD     -0.380000       0.00000          -1   0.00000       0.00000    
      4023 BUTA     53       BUTA     LPO12    LPD     -0.380000       0.00000          -1   0.00000       0.00000    
      4024 BUTA     53       BUTA     LPO21    LPD     -0.380000       0.00000          -1   0.00000       0.00000    
      4025 BUTA     53       BUTA     LPO22    LPD     -0.380000       0.00000          -1   0.00000       0.00000    
      4026 BUTA     54       BUTA     C1       CD33A     2.06290       11.6110           0  -1.81190       1.18670    
      4027 BUTA     54       BUTA     DC1      DRUD     -2.33590      0.400000           0   0.00000       0.00000    
      4028 BUTA     54       BUTA     C2       CD32A     2.01970       11.6110           0  -1.59660       1.16930    
      4029 BUTA     54       BUTA     DC2      DRUD     -2.19270      0.400000           0   0.00000       0.00000    
      4030 BUTA     54       BUTA     C3       CD32A     1.90870       11.6110           0  -1.59660       1.16930    
      4031 BUTA     54       BUTA     DC3      DRUD     -2.19270      0.400000           0   0.00000       0.00000    
      4032 BUTA     54       BUTA     C4       CD2O2A    2.36920       11.6110           0  -1.01600      0.899000    
      4033 BUTA     54       BUTA     DC4      DRUD     -1.74920      0.400000           0   0.00000       0.00000    
      4034 BUTA     54       BUTA     O1       OD2C2A    1.45090       15.5994           0 -0.699000       2.39900    
      4035 BUTA     54       BUTA     DO1      DRUD     -1.45090      0.400000           0   0.00000       0.00000    
      4036 BUTA     54       BUTA     O2       OD2C2A    1.45090       15.5994           0 -0.699000       2.39900    
      4037 BUTA     54       BUTA     DO2      DRUD     -1.45090      0.400000           0   0.00000       0.00000    
      4038 BUTA     54       BUTA     H1       HDA3A    0.900000E-01   1.00800           0   0.00000       0.00000    
      4039 BUTA     54       BUTA     H2       HDA3A    0.900000E-01   1.00800           0   0.00000       0.00000    
      4040 BUTA     54       BUTA     H3       HDA3A    0.900000E-01   1.00800           0   0.00000       0.00000    
      4041 BUTA     54       BUTA     H4       HDA2A    0.900000E-01   1.00800           0   0.00000       0.00000    
      4042 BUTA     54       BUTA     H5       HDA2A    0.900000E-01   1.00800           0   0.00000       0.00000    
      4043 BUTA     54       BUTA     H6       HDA2A    0.900000E-01   1.00800           0   0.00000       0.00000    
      4044 BUTA     54       BUTA     H7       HDA2A    0.900000E-01   1.00800           0   0.00000       0.00000    
      4045 BUTA     54       BUTA     H8       DUMH      0.00000       1.00800           0   0.00000       0.00000    
      4046 BUTA     54       BUTA     H9       DUMH      0.00000       1.00800           0   0.00000       0.00000    
      4047 BUTA     54       BUTA     LPO11    LPD     -0.380000       0.00000          -1   0.00000       0.00000    
      4048 BUTA     54       BUTA     LPO12    LPD     -0.380000       0.00000          -1   0.00000       0.00000    
      4049 BUTA     54       BUTA     LPO21    LPD     -0.380000       0.00000          -1   0.00000       0.00000    
      4050 BUTA     54       BUTA     LPO22    LPD     -0.380000       0.00000          -1   0.00000       0.00000    
      4051 BUTA     55       BUTA     C1       CD33A     2.06290       11.6110           0  -1.81190       1.18670    
      4052 BUTA     55       BUTA     DC1      DRUD     -2.33590      0.400000           0   0.00000       0.00000    
      4053 BUTA     55       BUTA     C2       CD32A     2.01970       11.6110           0  -1.59660       1.16930    
      4054 BUTA     55       BUTA     DC2      DRUD     -2.19270      0.400000           0   0.00000       0.00000    
      4055 BUTA     55       BUTA     C3       CD32A     1.90870       11.6110           0  -1.59660       1.16930    
      4056 BUTA     55       BUTA     DC3      DRUD     -2.19270      0.400000           0   0.00000       0.00000    
      4057 BUTA     55       BUTA     C4       CD2O2A    2.36920       11.6110           0  -1.01600      0.899000    
      4058 BUTA     55       BUTA     DC4      DRUD     -1.74920      0.400000           0   0.00000       0.00000    
      4059 BUTA     55       BUTA     O1       OD2C2A    1.45090       15.5994           0 -0.699000       2.39900    
      4060 BUTA     55       BUTA     DO1      DRUD     -1.45090      0.400000           0   0.00000       0.00000    
      4061 BUTA     55       BUTA     O2       OD2C2A    1.45090       15.5994           0 -0.699000       2.39900    
      4062 BUTA     55       BUTA     DO2      DRUD     -1.45090      0.400000           0   0.00000       0.00000    
      4063 BUTA     55       BUTA     H1       HDA3A    0.900000E-01   1.00800           0   0.00000       0.00000    
      4064 BUTA     55       BUTA     H2       HDA3A    0.900000E-01   1.00800           0   0.00000       0.00000    
      4065 BUTA     55       BUTA     H3       HDA3A    0.900000E-01   1.00800           0   0.00000       0.00000    
      4066 BUTA     55       BUTA     H4       HDA2A    0.900000E-01   1.00800           0   0.00000       0.00000    
      4067 BUTA     55       BUTA     H5       HDA2A    0.900000E-01   1.00800           0   0.00000       0.00000    
      4068 BUTA     55       BUTA     H6       HDA2A    0.900000E-01   1.00800           0   0.00000       0.00000    
      4069 BUTA     55       BUTA     H7       HDA2A    0.900000E-01   1.00800           0   0.00000       0.00000    
      4070 BUTA     55       BUTA     H8       DUMH      0.00000       1.00800           0   0.00000       0.00000    
      4071 BUTA     55       BUTA     H9       DUMH      0.00000       1.00800           0   0.00000       0.00000    
      4072 BUTA     55       BUTA     LPO11    LPD     -0.380000       0.00000          -1   0.00000       0.00000    
      4073 BUTA     55       BUTA     LPO12    LPD     -0.380000       0.00000          -1   0.00000       0.00000    
      4074 BUTA     55       BUTA     LPO21    LPD     -0.380000       0.00000          -1   0.00000       0.00000    
      4075 BUTA     55       BUTA     LPO22    LPD     -0.380000       0.00000          -1   0.00000       0.00000    
      4076 BUTA     56       BUTA     C1       CD33A     2.06290       11.6110           0  -1.81190       1.18670    
      4077 BUTA     56       BUTA     DC1      DRUD     -2.33590      0.400000           0   0.00000       0.00000    
      4078 BUTA     56       BUTA     C2       CD32A     2.01970       11.6110           0  -1.59660       1.16930    
      4079 BUTA     56       BUTA     DC2      DRUD     -2.19270      0.400000           0   0.00000       0.00000    
      4080 BUTA     56       BUTA     C3       CD32A     1.90870       11.6110           0  -1.59660       1.16930    
      4081 BUTA     56       BUTA     DC3      DRUD     -2.19270      0.400000           0   0.00000       0.00000    
      4082 BUTA     56       BUTA     C4       CD2O2A    2.36920       11.6110           0  -1.01600      0.899000    
      4083 BUTA     56       BUTA     DC4      DRUD     -1.74920      0.400000           0   0.00000       0.00000    
      4084 BUTA     56       BUTA     O1       OD2C2A    1.45090       15.5994           0 -0.699000       2.39900    
      4085 BUTA     56       BUTA     DO1      DRUD     -1.45090      0.400000           0   0.00000       0.00000    
      4086 BUTA     56       BUTA     O2       OD2C2A    1.45090       15.5994           0 -0.699000       2.39900    
      4087 BUTA     56       BUTA     DO2      DRUD     -1.45090      0.400000           0   0.00000       0.00000    
      4088 BUTA     56       BUTA     H1       HDA3A    0.900000E-01   1.00800           0   0.00000       0.00000    
      4089 BUTA     56       BUTA     H2       HDA3A    0.900000E-01   1.00800           0   0.00000       0.00000    
      4090 BUTA     56       BUTA     H3       HDA3A    0.900000E-01   1.00800           0   0.00000       0.00000    
      4091 BUTA     56       BUTA     H4       HDA2A    0.900000E-01   1.00800           0   0.00000       0.00000    
      4092 BUTA     56       BUTA     H5       HDA2A    0.900000E-01   1.00800           0   0.00000       0.00000    
      4093 BUTA     56       BUTA     H6       HDA2A    0.900000E-01   1.00800           0   0.00000       0.00000    
      4094 BUTA     56       BUTA     H7       HDA2A    0.900000E-01   1.00800           0   0.00000       0.00000    
      4095 BUTA     56       BUTA     H8       DUMH      0.00000       1.00800           0   0.00000       0.00000    
      4096 BUTA     56       BUTA     H9       DUMH      0.00000       1.00800           0   0.00000       0.00000    
      4097 BUTA     56       BUTA     LPO11    LPD     -0.380000       0.00000          -1   0.00000       0.00000    
      4098 BUTA     56       BUTA     LPO12    LPD     -0.380000       0.00000          -1   0.00000       0.00000    
      4099 BUTA     56       BUTA     LPO21    LPD     -0.380000       0.00000          -1   0.00000       0.00000    
      4100 BUTA     56       BUTA     LPO22    LPD     -0.380000       0.00000          -1   0.00000       0.00000    
      4101 BUTA     57       BUTA     C1       CD33A     2.06290       11.6110           0  -1.81190       1.18670    
      4102 BUTA     57       BUTA     DC1      DRUD     -2.33590      0.400000           0   0.00000       0.00000    
      4103 BUTA     57       BUTA     C2       CD32A     2.01970       11.6110           0  -1.59660       1.16930    
      4104 BUTA     57       BUTA     DC2      DRUD     -2.19270      0.400000           0   0.00000       0.00000    
      4105 BUTA     57       BUTA     C3       CD32A     1.90870       11.6110           0  -1.59660       1.16930    
      4106 BUTA     57       BUTA     DC3      DRUD     -2.19270      0.400000           0   0.00000       0.00000    
      4107 BUTA     57       BUTA     C4       CD2O2A    2.36920       11.6110           0  -1.01600      0.899000    
      4108 BUTA     57       BUTA     DC4      DRUD     -1.74920      0.400000           0   0.00000       0.00000    
      4109 BUTA     57       BUTA     O1       OD2C2A    1.45090       15.5994           0 -0.699000       2.39900    
      4110 BUTA     57       BUTA     DO1      DRUD     -1.45090      0.400000           0   0.00000       0.00000    
      4111 BUTA     57       BUTA     O2       OD2C2A    1.45090       15.5994           0 -0.699000       2.39900    
      4112 BUTA     57       BUTA     DO2      DRUD     -1.45090      0.400000           0   0.00000       0.00000    
      4113 BUTA     57       BUTA     H1       HDA3A    0.900000E-01   1.00800           0   0.00000       0.00000    
      4114 BUTA     57       BUTA     H2       HDA3A    0.900000E-01   1.00800           0   0.00000       0.00000    
      4115 BUTA     57       BUTA     H3       HDA3A    0.900000E-01   1.00800           0   0.00000       0.00000    
      4116 BUTA     57       BUTA     H4       HDA2A    0.900000E-01   1.00800           0   0.00000       0.00000    
      4117 BUTA     57       BUTA     H5       HDA2A    0.900000E-01   1.00800           0   0.00000       0.00000    
      4118 BUTA     57       BUTA     H6       HDA2A    0.900000E-01   1.00800           0   0.00000       0.00000    
      4119 BUTA     57       BUTA     H7       HDA2A    0.900000E-01   1.00800           0   0.00000       0.00000    
      4120 BUTA     57       BUTA     H8       DUMH      0.00000       1.00800           0   0.00000       0.00000    
      4121 BUTA     57       BUTA     H9       DUMH      0.00000       1.00800           0   0.00000       0.00000    
      4122 BUTA     57       BUTA     LPO11    LPD     -0.380000       0.00000          -1   0.00000       0.00000    
      4123 BUTA     57       BUTA     LPO12    LPD     -0.380000       0.00000          -1   0.00000       0.00000    
      4124 BUTA     57       BUTA     LPO21    LPD     -0.380000       0.00000          -1   0.00000       0.00000    
      4125 BUTA     57       BUTA     LPO22    LPD     -0.380000       0.00000          -1   0.00000       0.00000    
      4126 BUTA     58       BUTA     C1       CD33A     2.06290       11.6110           0  -1.81190       1.18670    
      4127 BUTA     58       BUTA     DC1      DRUD     -2.33590      0.400000           0   0.00000       0.00000    
      4128 BUTA     58       BUTA     C2       CD32A     2.01970       11.6110           0  -1.59660       1.16930    
      4129 BUTA     58       BUTA     DC2      DRUD     -2.19270      0.400000           0   0.00000       0.00000    
      4130 BUTA     58       BUTA     C3       CD32A     1.90870       11.6110           0  -1.59660       1.16930    
      4131 BUTA     58       BUTA     DC3      DRUD     -2.19270      0.400000           0   0.00000       0.00000    
      4132 BUTA     58       BUTA     C4       CD2O2A    2.36920       11.6110           0  -1.01600      0.899000    
      4133 BUTA     58       BUTA     DC4      DRUD     -1.74920      0.400000           0   0.00000       0.00000    
      4134 BUTA     58       BUTA     O1       OD2C2A    1.45090       15.5994           0 -0.699000       2.39900    
      4135 BUTA     58       BUTA     DO1      DRUD     -1.45090      0.400000           0   0.00000       0.00000    
      4136 BUTA     58       BUTA     O2       OD2C2A    1.45090       15.5994           0 -0.699000       2.39900    
      4137 BUTA     58       BUTA     DO2      DRUD     -1.45090      0.400000           0   0.00000       0.00000    
      4138 BUTA     58       BUTA     H1       HDA3A    0.900000E-01   1.00800           0   0.00000       0.00000    
      4139 BUTA     58       BUTA     H2       HDA3A    0.900000E-01   1.00800           0   0.00000       0.00000    
      4140 BUTA     58       BUTA     H3       HDA3A    0.900000E-01   1.00800           0   0.00000       0.00000    
      4141 BUTA     58       BUTA     H4       HDA2A    0.900000E-01   1.00800           0   0.00000       0.00000    
      4142 BUTA     58       BUTA     H5       HDA2A    0.900000E-01   1.00800           0   0.00000       0.00000    
      4143 BUTA     58       BUTA     H6       HDA2A    0.900000E-01   1.00800           0   0.00000       0.00000    
      4144 BUTA     58       BUTA     H7       HDA2A    0.900000E-01   1.00800           0   0.00000       0.00000    
      4145 BUTA     58       BUTA     H8       DUMH      0.00000       1.00800           0   0.00000       0.00000    
      4146 BUTA     58       BUTA     H9       DUMH      0.00000       1.00800           0   0.00000       0.00000    
      4147 BUTA     58       BUTA     LPO11    LPD     -0.380000       0.00000          -1   0.00000       0.00000    
      4148 BUTA     58       BUTA     LPO12    LPD     -0.380000       0.00000          -1   0.00000       0.00000    
      4149 BUTA     58       BUTA     LPO21    LPD     -0.380000       0.00000          -1   0.00000       0.00000    
      4150 BUTA     58       BUTA     LPO22    LPD     -0.380000       0.00000          -1   0.00000       0.00000    
      4151 BUTA     59       BUTA     C1       CD33A     2.06290       11.6110           0  -1.81190       1.18670    
      4152 BUTA     59       BUTA     DC1      DRUD     -2.33590      0.400000           0   0.00000       0.00000    
      4153 BUTA     59       BUTA     C2       CD32A     2.01970       11.6110           0  -1.59660       1.16930    
      4154 BUTA     59       BUTA     DC2      DRUD     -2.19270      0.400000           0   0.00000       0.00000    
      4155 BUTA     59       BUTA     C3       CD32A     1.90870       11.6110           0  -1.59660       1.16930    
      4156 BUTA     59       BUTA     DC3      DRUD     -2.19270      0.400000           0   0.00000       0.00000    
      4157 BUTA     59       BUTA     C4       CD2O2A    2.36920       11.6110           0  -1.01600      0.899000    
      4158 BUTA     59       BUTA     DC4      DRUD     -1.74920      0.400000           0   0.00000       0.00000    
      4159 BUTA     59       BUTA     O1       OD2C2A    1.45090       15.5994           0 -0.699000       2.39900    
      4160 BUTA     59       BUTA     DO1      DRUD     -1.45090      0.400000           0   0.00000       0.00000    
      4161 BUTA     59       BUTA     O2       OD2C2A    1.45090       15.5994           0 -0.699000       2.39900    
      4162 BUTA     59       BUTA     DO2      DRUD     -1.45090      0.400000           0   0.00000       0.00000    
      4163 BUTA     59       BUTA     H1       HDA3A    0.900000E-01   1.00800           0   0.00000       0.00000    
      4164 BUTA     59       BUTA     H2       HDA3A    0.900000E-01   1.00800           0   0.00000       0.00000    
      4165 BUTA     59       BUTA     H3       HDA3A    0.900000E-01   1.00800           0   0.00000       0.00000    
      4166 BUTA     59       BUTA     H4       HDA2A    0.900000E-01   1.00800           0   0.00000       0.00000    
      4167 BUTA     59       BUTA     H5       HDA2A    0.900000E-01   1.00800           0   0.00000       0.00000    
      4168 BUTA     59       BUTA     H6       HDA2A    0.900000E-01   1.00800           0   0.00000       0.00000    
      4169 BUTA     59       BUTA     H7       HDA2A    0.900000E-01   1.00800           0   0.00000       0.00000    
      4170 BUTA     59       BUTA     H8       DUMH      0.00000       1.00800           0   0.00000       0.00000    
      4171 BUTA     59       BUTA     H9       DUMH      0.00000       1.00800           0   0.00000       0.00000    
      4172 BUTA     59       BUTA     LPO11    LPD     -0.380000       0.00000          -1   0.00000       0.00000    
      4173 BUTA     59       BUTA     LPO12    LPD     -0.380000       0.00000          -1   0.00000       0.00000    
      4174 BUTA     59       BUTA     LPO21    LPD     -0.380000       0.00000          -1   0.00000       0.00000    
      4175 BUTA     59       BUTA     LPO22    LPD     -0.380000       0.00000          -1   0.00000       0.00000    
      4176 BUTA     60       BUTA     C1       CD33A     2.06290       11.6110           0  -1.81190       1.18670    
      4177 BUTA     60       BUTA     DC1      DRUD     -2.33590      0.400000           0   0.00000       0.00000    
      4178 BUTA     60       BUTA     C2       CD32A     2.01970       11.6110           0  -1.59660       1.16930    
      4179 BUTA     60       BUTA     DC2      DRUD     -2.19270      0.400000           0   0.00000       0.00000    
      4180 BUTA     60       BUTA     C3       CD32A     1.90870       11.6110           0  -1.59660       1.16930    
      4181 BUTA     60       BUTA     DC3      DRUD     -2.19270      0.400000           0   0.00000       0.00000    
      4182 BUTA     60       BUTA     C4       CD2O2A    2.36920       11.6110           0  -1.01600      0.899000    
      4183 BUTA     60       BUTA     DC4      DRUD     -1.74920      0.400000           0   0.00000       0.00000    
      4184 BUTA     60       BUTA     O1       OD2C2A    1.45090       15.5994           0 -0.699000       2.39900    
      4185 BUTA     60       BUTA     DO1      DRUD     -1.45090      0.400000           0   0.00000       0.00000    
      4186 BUTA     60       BUTA     O2       OD2C2A    1.45090       15.5994           0 -0.699000       2.39900    
      4187 BUTA     60       BUTA     DO2      DRUD     -1.45090      0.400000           0   0.00000       0.00000    
      4188 BUTA     60       BUTA     H1       HDA3A    0.900000E-01   1.00800           0   0.00000       0.00000    
      4189 BUTA     60       BUTA     H2       HDA3A    0.900000E-01   1.00800           0   0.00000       0.00000    
      4190 BUTA     60       BUTA     H3       HDA3A    0.900000E-01   1.00800           0   0.00000       0.00000    
      4191 BUTA     60       BUTA     H4       HDA2A    0.900000E-01   1.00800           0   0.00000       0.00000    
      4192 BUTA     60       BUTA     H5       HDA2A    0.900000E-01   1.00800           0   0.00000       0.00000    
      4193 BUTA     60       BUTA     H6       HDA2A    0.900000E-01   1.00800           0   0.00000       0.00000    
      4194 BUTA     60       BUTA     H7       HDA2A    0.900000E-01   1.00800           0   0.00000       0.00000    
      4195 BUTA     60       BUTA     H8       DUMH      0.00000       1.00800           0   0.00000       0.00000    
      4196 BUTA     60       BUTA     H9       DUMH      0.00000       1.00800           0   0.00000       0.00000    
      4197 BUTA     60       BUTA     LPO11    LPD     -0.380000       0.00000          -1   0.00000       0.00000    
      4198 BUTA     60       BUTA     LPO12    LPD     -0.380000       0.00000          -1   0.00000       0.00000    
      4199 BUTA     60       BUTA     LPO21    LPD     -0.380000       0.00000          -1   0.00000       0.00000    
      4200 BUTA     60       BUTA     LPO22    LPD     -0.380000       0.00000          -1   0.00000       0.00000    
      4201 BUTA     61       BUTA     C1       CD33A     2.06290       11.6110           0  -1.81190       1.18670    
      4202 BUTA     61       BUTA     DC1      DRUD     -2.33590      0.400000           0   0.00000       0.00000    
      4203 BUTA     61       BUTA     C2       CD32A     2.01970       11.6110           0  -1.59660       1.16930    
      4204 BUTA     61       BUTA     DC2      DRUD     -2.19270      0.400000           0   0.00000       0.00000    
      4205 BUTA     61       BUTA     C3       CD32A     1.90870       11.6110           0  -1.59660       1.16930    
      4206 BUTA     61       BUTA     DC3      DRUD     -2.19270      0.400000           0   0.00000       0.00000    
      4207 BUTA     61       BUTA     C4       CD2O2A    2.36920       11.6110           0  -1.01600      0.899000    
      4208 BUTA     61       BUTA     DC4      DRUD     -1.74920      0.400000           0   0.00000       0.00000    
      4209 BUTA     61       BUTA     O1       OD2C2A    1.45090       15.5994           0 -0.699000       2.39900    
      4210 BUTA     61       BUTA     DO1      DRUD     -1.45090      0.400000           0   0.00000       0.00000    
      4211 BUTA     61       BUTA     O2       OD2C2A    1.45090       15.5994           0 -0.699000       2.39900    
      4212 BUTA     61       BUTA     DO2      DRUD     -1.45090      0.400000           0   0.00000       0.00000    
      4213 BUTA     61       BUTA     H1       HDA3A    0.900000E-01   1.00800           0   0.00000       0.00000    
      4214 BUTA     61       BUTA     H2       HDA3A    0.900000E-01   1.00800           0   0.00000       0.00000    
      4215 BUTA     61       BUTA     H3       HDA3A    0.900000E-01   1.00800           0   0.00000       0.00000    
      4216 BUTA     61       BUTA     H4       HDA2A    0.900000E-01   1.00800           0   0.00000       0.00000    
      4217 BUTA     61       BUTA     H5       HDA2A    0.900000E-01   1.00800           0   0.00000       0.00000    
      4218 BUTA     61       BUTA     H6       HDA2A    0.900000E-01   1.00800           0   0.00000       0.00000    
      4219 BUTA     61       BUTA     H7       HDA2A    0.900000E-01   1.00800           0   0.00000       0.00000    
      4220 BUTA     61       BUTA     H8       DUMH      0.00000       1.00800           0   0.00000       0.00000    
      4221 BUTA     61       BUTA     H9       DUMH      0.00000       1.00800           0   0.00000       0.00000    
      4222 BUTA     61       BUTA     LPO11    LPD     -0.380000       0.00000          -1   0.00000       0.00000    
      4223 BUTA     61       BUTA     LPO12    LPD     -0.380000       0.00000          -1   0.00000       0.00000    
      4224 BUTA     61       BUTA     LPO21    LPD     -0.380000       0.00000          -1   0.00000       0.00000    
      4225 BUTA     61       BUTA     LPO22    LPD     -0.380000       0.00000          -1   0.00000       0.00000    
      4226 BUTA     62       BUTA     C1       CD33A     2.06290       11.6110           0  -1.81190       1.18670    
      4227 BUTA     62       BUTA     DC1      DRUD     -2.33590      0.400000           0   0.00000       0.00000    
      4228 BUTA     62       BUTA     C2       CD32A     2.01970       11.6110           0  -1.59660       1.16930    
      4229 BUTA     62       BUTA     DC2      DRUD     -2.19270      0.400000           0   0.00000       0.00000    
      4230 BUTA     62       BUTA     C3       CD32A     1.90870       11.6110           0  -1.59660       1.16930    
      4231 BUTA     62       BUTA     DC3      DRUD     -2.19270      0.400000           0   0.00000       0.00000    
      4232 BUTA     62       BUTA     C4       CD2O2A    2.36920       11.6110           0  -1.01600      0.899000    
      4233 BUTA     62       BUTA     DC4      DRUD     -1.74920      0.400000           0   0.00000       0.00000    
      4234 BUTA     62       BUTA     O1       OD2C2A    1.45090       15.5994           0 -0.699000       2.39900    
      4235 BUTA     62       BUTA     DO1      DRUD     -1.45090      0.400000           0   0.00000       0.00000    
      4236 BUTA     62       BUTA     O2       OD2C2A    1.45090       15.5994           0 -0.699000       2.39900    
      4237 BUTA     62       BUTA     DO2      DRUD     -1.45090      0.400000           0   0.00000       0.00000    
      4238 BUTA     62       BUTA     H1       HDA3A    0.900000E-01   1.00800           0   0.00000       0.00000    
      4239 BUTA     62       BUTA     H2       HDA3A    0.900000E-01   1.00800           0   0.00000       0.00000    
      4240 BUTA     62       BUTA     H3       HDA3A    0.900000E-01   1.00800           0   0.00000       0.00000    
      4241 BUTA     62       BUTA     H4       HDA2A    0.900000E-01   1.00800           0   0.00000       0.00000    
      4242 BUTA     62       BUTA     H5       HDA2A    0.900000E-01   1.00800           0   0.00000       0.00000    
      4243 BUTA     62       BUTA     H6       HDA2A    0.900000E-01   1.00800           0   0.00000       0.00000    
      4244 BUTA     62       BUTA     H7       HDA2A    0.900000E-01   1.00800           0   0.00000       0.00000    
      4245 BUTA     62       BUTA     H8       DUMH      0.00000       1.00800           0   0.00000       0.00000    
      4246 BUTA     62       BUTA     H9       DUMH      0.00000       1.00800           0   0.00000       0.00000    
      4247 BUTA     62       BUTA     LPO11    LPD     -0.380000       0.00000          -1   0.00000       0.00000    
      4248 BUTA     62       BUTA     LPO12    LPD     -0.380000       0.00000          -1   0.00000       0.00000    
      4249 BUTA     62       BUTA     LPO21    LPD     -0.380000       0.00000          -1   0.00000       0.00000    
      4250 BUTA     62       BUTA     LPO22    LPD     -0.380000       0.00000          -1   0.00000       0.00000    
      4251 BUTA     63       BUTA     C1       CD33A     2.06290       11.6110           0  -1.81190       1.18670    
      4252 BUTA     63       BUTA     DC1      DRUD     -2.33590      0.400000           0   0.00000       0.00000    
      4253 BUTA     63       BUTA     C2       CD32A     2.01970       11.6110           0  -1.59660       1.16930    
      4254 BUTA     63       BUTA     DC2      DRUD     -2.19270      0.400000           0   0.00000       0.00000    
      4255 BUTA     63       BUTA     C3       CD32A     1.90870       11.6110           0  -1.59660       1.16930    
      4256 BUTA     63       BUTA     DC3      DRUD     -2.19270      0.400000           0   0.00000       0.00000    
      4257 BUTA     63       BUTA     C4       CD2O2A    2.36920       11.6110           0  -1.01600      0.899000    
      4258 BUTA     63       BUTA     DC4      DRUD     -1.74920      0.400000           0   0.00000       0.00000    
      4259 BUTA     63       BUTA     O1       OD2C2A    1.45090       15.5994           0 -0.699000       2.39900    
      4260 BUTA     63       BUTA     DO1      DRUD     -1.45090      0.400000           0   0.00000       0.00000    
      4261 BUTA     63       BUTA     O2       OD2C2A    1.45090       15.5994           0 -0.699000       2.39900    
      4262 BUTA     63       BUTA     DO2      DRUD     -1.45090      0.400000           0   0.00000       0.00000    
      4263 BUTA     63       BUTA     H1       HDA3A    0.900000E-01   1.00800           0   0.00000       0.00000    
      4264 BUTA     63       BUTA     H2       HDA3A    0.900000E-01   1.00800           0   0.00000       0.00000    
      4265 BUTA     63       BUTA     H3       HDA3A    0.900000E-01   1.00800           0   0.00000       0.00000    
      4266 BUTA     63       BUTA     H4       HDA2A    0.900000E-01   1.00800           0   0.00000       0.00000    
      4267 BUTA     63       BUTA     H5       HDA2A    0.900000E-01   1.00800           0   0.00000       0.00000    
      4268 BUTA     63       BUTA     H6       HDA2A    0.900000E-01   1.00800           0   0.00000       0.00000    
      4269 BUTA     63       BUTA     H7       HDA2A    0.900000E-01   1.00800           0   0.00000       0.00000    
      4270 BUTA     63       BUTA     H8       DUMH      0.00000       1.00800           0   0.00000       0.00000    
      4271 BUTA     63       BUTA     H9       DUMH      0.00000       1.00800           0   0.00000       0.00000    
      4272 BUTA     63       BUTA     LPO11    LPD     -0.380000       0.00000          -1   0.00000       0.00000    
      4273 BUTA     63       BUTA     LPO12    LPD     -0.380000       0.00000          -1   0.00000       0.00000    
      4274 BUTA     63       BUTA     LPO21    LPD     -0.380000       0.00000          -1   0.00000       0.00000    
      4275 BUTA     63       BUTA     LPO22    LPD     -0.380000       0.00000          -1   0.00000       0.00000    
      4276 BUTA     64       BUTA     C1       CD33A     2.06290       11.6110           0  -1.81190       1.18670    
      4277 BUTA     64       BUTA     DC1      DRUD     -2.33590      0.400000           0   0.00000       0.00000    
      4278 BUTA     64       BUTA     C2       CD32A     2.01970       11.6110           0  -1.59660       1.16930    
      4279 BUTA     64       BUTA     DC2      DRUD     -2.19270      0.400000           0   0.00000       0.00000    
      4280 BUTA     64       BUTA     C3       CD32A     1.90870       11.6110           0  -1.59660       1.16930    
      4281 BUTA     64       BUTA     DC3      DRUD     -2.19270      0.400000           0   0.00000       0.00000    
      4282 BUTA     64       BUTA     C4       CD2O2A    2.36920       11.6110           0  -1.01600      0.899000    
      4283 BUTA     64       BUTA     DC4      DRUD     -1.74920      0.400000           0   0.00000       0.00000    
      4284 BUTA     64       BUTA     O1       OD2C2A    1.45090       15.5994           0 -0.699000       2.39900    
      4285 BUTA     64       BUTA     DO1      DRUD     -1.45090      0.400000           0   0.00000       0.00000    
      4286 BUTA     64       BUTA     O2       OD2C2A    1.45090       15.5994           0 -0.699000       2.39900    
      4287 BUTA     64       BUTA     DO2      DRUD     -1.45090      0.400000           0   0.00000       0.00000    
      4288 BUTA     64       BUTA     H1       HDA3A    0.900000E-01   1.00800           0   0.00000       0.00000    
      4289 BUTA     64       BUTA     H2       HDA3A    0.900000E-01   1.00800           0   0.00000       0.00000    
      4290 BUTA     64       BUTA     H3       HDA3A    0.900000E-01   1.00800           0   0.00000       0.00000    
      4291 BUTA     64       BUTA     H4       HDA2A    0.900000E-01   1.00800           0   0.00000       0.00000    
      4292 BUTA     64       BUTA     H5       HDA2A    0.900000E-01   1.00800           0   0.00000       0.00000    
      4293 BUTA     64       BUTA     H6       HDA2A    0.900000E-01   1.00800           0   0.00000       0.00000    
      4294 BUTA     64       BUTA     H7       HDA2A    0.900000E-01   1.00800           0   0.00000       0.00000    
      4295 BUTA     64       BUTA     H8       DUMH      0.00000       1.00800           0   0.00000       0.00000    
      4296 BUTA     64       BUTA     H9       DUMH      0.00000       1.00800           0   0.00000       0.00000    
      4297 BUTA     64       BUTA     LPO11    LPD     -0.380000       0.00000          -1   0.00000       0.00000    
      4298 BUTA     64       BUTA     LPO12    LPD     -0.380000       0.00000          -1   0.00000       0.00000    
      4299 BUTA     64       BUTA     LPO21    LPD     -0.380000       0.00000          -1   0.00000       0.00000    
      4300 BUTA     64       BUTA     LPO22    LPD     -0.380000       0.00000          -1   0.00000       0.00000    
      4301 BUTA     65       BUTA     C1       CD33A     2.06290       11.6110           0  -1.81190       1.18670    
      4302 BUTA     65       BUTA     DC1      DRUD     -2.33590      0.400000           0   0.00000       0.00000    
      4303 BUTA     65       BUTA     C2       CD32A     2.01970       11.6110           0  -1.59660       1.16930    
      4304 BUTA     65       BUTA     DC2      DRUD     -2.19270      0.400000           0   0.00000       0.00000    
      4305 BUTA     65       BUTA     C3       CD32A     1.90870       11.6110           0  -1.59660       1.16930    
      4306 BUTA     65       BUTA     DC3      DRUD     -2.19270      0.400000           0   0.00000       0.00000    
      4307 BUTA     65       BUTA     C4       CD2O2A    2.36920       11.6110           0  -1.01600      0.899000    
      4308 BUTA     65       BUTA     DC4      DRUD     -1.74920      0.400000           0   0.00000       0.00000    
      4309 BUTA     65       BUTA     O1       OD2C2A    1.45090       15.5994           0 -0.699000       2.39900    
      4310 BUTA     65       BUTA     DO1      DRUD     -1.45090      0.400000           0   0.00000       0.00000    
      4311 BUTA     65       BUTA     O2       OD2C2A    1.45090       15.5994           0 -0.699000       2.39900    
      4312 BUTA     65       BUTA     DO2      DRUD     -1.45090      0.400000           0   0.00000       0.00000    
      4313 BUTA     65       BUTA     H1       HDA3A    0.900000E-01   1.00800           0   0.00000       0.00000    
      4314 BUTA     65       BUTA     H2       HDA3A    0.900000E-01   1.00800           0   0.00000       0.00000    
      4315 BUTA     65       BUTA     H3       HDA3A    0.900000E-01   1.00800           0   0.00000       0.00000    
      4316 BUTA     65       BUTA     H4       HDA2A    0.900000E-01   1.00800           0   0.00000       0.00000    
      4317 BUTA     65       BUTA     H5       HDA2A    0.900000E-01   1.00800           0   0.00000       0.00000    
      4318 BUTA     65       BUTA     H6       HDA2A    0.900000E-01   1.00800           0   0.00000       0.00000    
      4319 BUTA     65       BUTA     H7       HDA2A    0.900000E-01   1.00800           0   0.00000       0.00000    
      4320 BUTA     65       BUTA     H8       DUMH      0.00000       1.00800           0   0.00000       0.00000    
      4321 BUTA     65       BUTA     H9       DUMH      0.00000       1.00800           0   0.00000       0.00000    
      4322 BUTA     65       BUTA     LPO11    LPD     -0.380000       0.00000          -1   0.00000       0.00000    
      4323 BUTA     65       BUTA     LPO12    LPD     -0.380000       0.00000          -1   0.00000       0.00000    
      4324 BUTA     65       BUTA     LPO21    LPD     -0.380000       0.00000          -1   0.00000       0.00000    
      4325 BUTA     65       BUTA     LPO22    LPD     -0.380000       0.00000          -1   0.00000       0.00000    
      4326 BUTA     66       BUTA     C1       CD33A     2.06290       11.6110           0  -1.81190       1.18670    
      4327 BUTA     66       BUTA     DC1      DRUD     -2.33590      0.400000           0   0.00000       0.00000    
      4328 BUTA     66       BUTA     C2       CD32A     2.01970       11.6110           0  -1.59660       1.16930    
      4329 BUTA     66       BUTA     DC2      DRUD     -2.19270      0.400000           0   0.00000       0.00000    
      4330 BUTA     66       BUTA     C3       CD32A     1.90870       11.6110           0  -1.59660       1.16930    
      4331 BUTA     66       BUTA     DC3      DRUD     -2.19270      0.400000           0   0.00000       0.00000    
      4332 BUTA     66       BUTA     C4       CD2O2A    2.36920       11.6110           0  -1.01600      0.899000    
      4333 BUTA     66       BUTA     DC4      DRUD     -1.74920      0.400000           0   0.00000       0.00000    
      4334 BUTA     66       BUTA     O1       OD2C2A    1.45090       15.5994           0 -0.699000       2.39900    
      4335 BUTA     66       BUTA     DO1      DRUD     -1.45090      0.400000           0   0.00000       0.00000    
      4336 BUTA     66       BUTA     O2       OD2C2A    1.45090       15.5994           0 -0.699000       2.39900    
      4337 BUTA     66       BUTA     DO2      DRUD     -1.45090      0.400000           0   0.00000       0.00000    
      4338 BUTA     66       BUTA     H1       HDA3A    0.900000E-01   1.00800           0   0.00000       0.00000    
      4339 BUTA     66       BUTA     H2       HDA3A    0.900000E-01   1.00800           0   0.00000       0.00000    
      4340 BUTA     66       BUTA     H3       HDA3A    0.900000E-01   1.00800           0   0.00000       0.00000    
      4341 BUTA     66       BUTA     H4       HDA2A    0.900000E-01   1.00800           0   0.00000       0.00000    
      4342 BUTA     66       BUTA     H5       HDA2A    0.900000E-01   1.00800           0   0.00000       0.00000    
      4343 BUTA     66       BUTA     H6       HDA2A    0.900000E-01   1.00800           0   0.00000       0.00000    
      4344 BUTA     66       BUTA     H7       HDA2A    0.900000E-01   1.00800           0   0.00000       0.00000    
      4345 BUTA     66       BUTA     H8       DUMH      0.00000       1.00800           0   0.00000       0.00000    
      4346 BUTA     66       BUTA     H9       DUMH      0.00000       1.00800           0   0.00000       0.00000    
      4347 BUTA     66       BUTA     LPO11    LPD     -0.380000       0.00000          -1   0.00000       0.00000    
      4348 BUTA     66       BUTA     LPO12    LPD     -0.380000       0.00000          -1   0.00000       0.00000    
      4349 BUTA     66       BUTA     LPO21    LPD     -0.380000       0.00000          -1   0.00000       0.00000    
      4350 BUTA     66       BUTA     LPO22    LPD     -0.380000       0.00000          -1   0.00000       0.00000    
      4351 BUTA     67       BUTA     C1       CD33A     2.06290       11.6110           0  -1.81190       1.18670    
      4352 BUTA     67       BUTA     DC1      DRUD     -2.33590      0.400000           0   0.00000       0.00000    
      4353 BUTA     67       BUTA     C2       CD32A     2.01970       11.6110           0  -1.59660       1.16930    
      4354 BUTA     67       BUTA     DC2      DRUD     -2.19270      0.400000           0   0.00000       0.00000    
      4355 BUTA     67       BUTA     C3       CD32A     1.90870       11.6110           0  -1.59660       1.16930    
      4356 BUTA     67       BUTA     DC3      DRUD     -2.19270      0.400000           0   0.00000       0.00000    
      4357 BUTA     67       BUTA     C4       CD2O2A    2.36920       11.6110           0  -1.01600      0.899000    
      4358 BUTA     67       BUTA     DC4      DRUD     -1.74920      0.400000           0   0.00000       0.00000    
      4359 BUTA     67       BUTA     O1       OD2C2A    1.45090       15.5994           0 -0.699000       2.39900    
      4360 BUTA     67       BUTA     DO1      DRUD     -1.45090      0.400000           0   0.00000       0.00000    
      4361 BUTA     67       BUTA     O2       OD2C2A    1.45090       15.5994           0 -0.699000       2.39900    
      4362 BUTA     67       BUTA     DO2      DRUD     -1.45090      0.400000           0   0.00000       0.00000    
      4363 BUTA     67       BUTA     H1       HDA3A    0.900000E-01   1.00800           0   0.00000       0.00000    
      4364 BUTA     67       BUTA     H2       HDA3A    0.900000E-01   1.00800           0   0.00000       0.00000    
      4365 BUTA     67       BUTA     H3       HDA3A    0.900000E-01   1.00800           0   0.00000       0.00000    
      4366 BUTA     67       BUTA     H4       HDA2A    0.900000E-01   1.00800           0   0.00000       0.00000    
      4367 BUTA     67       BUTA     H5       HDA2A    0.900000E-01   1.00800           0   0.00000       0.00000    
      4368 BUTA     67       BUTA     H6       HDA2A    0.900000E-01   1.00800           0   0.00000       0.00000    
      4369 BUTA     67       BUTA     H7       HDA2A    0.900000E-01   1.00800           0   0.00000       0.00000    
      4370 BUTA     67       BUTA     H8       DUMH      0.00000       1.00800           0   0.00000       0.00000    
      4371 BUTA     67       BUTA     H9       DUMH      0.00000       1.00800           0   0.00000       0.00000    
      4372 BUTA     67       BUTA     LPO11    LPD     -0.380000       0.00000          -1   0.00000       0.00000    
      4373 BUTA     67       BUTA     LPO12    LPD     -0.380000       0.00000          -1   0.00000       0.00000    
      4374 BUTA     67       BUTA     LPO21    LPD     -0.380000       0.00000          -1   0.00000       0.00000    
      4375 BUTA     67       BUTA     LPO22    LPD     -0.380000       0.00000          -1   0.00000       0.00000    
      4376 BUTA     68       BUTA     C1       CD33A     2.06290       11.6110           0  -1.81190       1.18670    
      4377 BUTA     68       BUTA     DC1      DRUD     -2.33590      0.400000           0   0.00000       0.00000    
      4378 BUTA     68       BUTA     C2       CD32A     2.01970       11.6110           0  -1.59660       1.16930    
      4379 BUTA     68       BUTA     DC2      DRUD     -2.19270      0.400000           0   0.00000       0.00000    
      4380 BUTA     68       BUTA     C3       CD32A     1.90870       11.6110           0  -1.59660       1.16930    
      4381 BUTA     68       BUTA     DC3      DRUD     -2.19270      0.400000           0   0.00000       0.00000    
      4382 BUTA     68       BUTA     C4       CD2O2A    2.36920       11.6110           0  -1.01600      0.899000    
      4383 BUTA     68       BUTA     DC4      DRUD     -1.74920      0.400000           0   0.00000       0.00000    
      4384 BUTA     68       BUTA     O1       OD2C2A    1.45090       15.5994           0 -0.699000       2.39900    
      4385 BUTA     68       BUTA     DO1      DRUD     -1.45090      0.400000           0   0.00000       0.00000    
      4386 BUTA     68       BUTA     O2       OD2C2A    1.45090       15.5994           0 -0.699000       2.39900    
      4387 BUTA     68       BUTA     DO2      DRUD     -1.45090      0.400000           0   0.00000       0.00000    
      4388 BUTA     68       BUTA     H1       HDA3A    0.900000E-01   1.00800           0   0.00000       0.00000    
      4389 BUTA     68       BUTA     H2       HDA3A    0.900000E-01   1.00800           0   0.00000       0.00000    
      4390 BUTA     68       BUTA     H3       HDA3A    0.900000E-01   1.00800           0   0.00000       0.00000    
      4391 BUTA     68       BUTA     H4       HDA2A    0.900000E-01   1.00800           0   0.00000       0.00000    
      4392 BUTA     68       BUTA     H5       HDA2A    0.900000E-01   1.00800           0   0.00000       0.00000    
      4393 BUTA     68       BUTA     H6       HDA2A    0.900000E-01   1.00800           0   0.00000       0.00000    
      4394 BUTA     68       BUTA     H7       HDA2A    0.900000E-01   1.00800           0   0.00000       0.00000    
      4395 BUTA     68       BUTA     H8       DUMH      0.00000       1.00800           0   0.00000       0.00000    
      4396 BUTA     68       BUTA     H9       DUMH      0.00000       1.00800           0   0.00000       0.00000    
      4397 BUTA     68       BUTA     LPO11    LPD     -0.380000       0.00000          -1   0.00000       0.00000    
      4398 BUTA     68       BUTA     LPO12    LPD     -0.380000       0.00000          -1   0.00000       0.00000    
      4399 BUTA     68       BUTA     LPO21    LPD     -0.380000       0.00000          -1   0.00000       0.00000    
      4400 BUTA     68       BUTA     LPO22    LPD     -0.380000       0.00000          -1   0.00000       0.00000    
      4401 BUTA     69       BUTA     C1       CD33A     2.06290       11.6110           0  -1.81190       1.18670    
      4402 BUTA     69       BUTA     DC1      DRUD     -2.33590      0.400000           0   0.00000       0.00000    
      4403 BUTA     69       BUTA     C2       CD32A     2.01970       11.6110           0  -1.59660       1.16930    
      4404 BUTA     69       BUTA     DC2      DRUD     -2.19270      0.400000           0   0.00000       0.00000    
      4405 BUTA     69       BUTA     C3       CD32A     1.90870       11.6110           0  -1.59660       1.16930    
      4406 BUTA     69       BUTA     DC3      DRUD     -2.19270      0.400000           0   0.00000       0.00000    
      4407 BUTA     69       BUTA     C4       CD2O2A    2.36920       11.6110           0  -1.01600      0.899000    
      4408 BUTA     69       BUTA     DC4      DRUD     -1.74920      0.400000           0   0.00000       0.00000    
      4409 BUTA     69       BUTA     O1       OD2C2A    1.45090       15.5994           0 -0.699000       2.39900    
      4410 BUTA     69       BUTA     DO1      DRUD     -1.45090      0.400000           0   0.00000       0.00000    
      4411 BUTA     69       BUTA     O2       OD2C2A    1.45090       15.5994           0 -0.699000       2.39900    
      4412 BUTA     69       BUTA     DO2      DRUD     -1.45090      0.400000           0   0.00000       0.00000    
      4413 BUTA     69       BUTA     H1       HDA3A    0.900000E-01   1.00800           0   0.00000       0.00000    
      4414 BUTA     69       BUTA     H2       HDA3A    0.900000E-01   1.00800           0   0.00000       0.00000    
      4415 BUTA     69       BUTA     H3       HDA3A    0.900000E-01   1.00800           0   0.00000       0.00000    
      4416 BUTA     69       BUTA     H4       HDA2A    0.900000E-01   1.00800           0   0.00000       0.00000    
      4417 BUTA     69       BUTA     H5       HDA2A    0.900000E-01   1.00800           0   0.00000       0.00000    
      4418 BUTA     69       BUTA     H6       HDA2A    0.900000E-01   1.00800           0   0.00000       0.00000    
      4419 BUTA     69       BUTA     H7       HDA2A    0.900000E-01   1.00800           0   0.00000       0.00000    
      4420 BUTA     69       BUTA     H8       DUMH      0.00000       1.00800           0   0.00000       0.00000    
      4421 BUTA     69       BUTA     H9       DUMH      0.00000       1.00800           0   0.00000       0.00000    
      4422 BUTA     69       BUTA     LPO11    LPD     -0.380000       0.00000          -1   0.00000       0.00000    
      4423 BUTA     69       BUTA     LPO12    LPD     -0.380000       0.00000          -1   0.00000       0.00000    
      4424 BUTA     69       BUTA     LPO21    LPD     -0.380000       0.00000          -1   0.00000       0.00000    
      4425 BUTA     69       BUTA     LPO22    LPD     -0.380000       0.00000          -1   0.00000       0.00000    
      4426 BUTA     70       BUTA     C1       CD33A     2.06290       11.6110           0  -1.81190       1.18670    
      4427 BUTA     70       BUTA     DC1      DRUD     -2.33590      0.400000           0   0.00000       0.00000    
      4428 BUTA     70       BUTA     C2       CD32A     2.01970       11.6110           0  -1.59660       1.16930    
      4429 BUTA     70       BUTA     DC2      DRUD     -2.19270      0.400000           0   0.00000       0.00000    
      4430 BUTA     70       BUTA     C3       CD32A     1.90870       11.6110           0  -1.59660       1.16930    
      4431 BUTA     70       BUTA     DC3      DRUD     -2.19270      0.400000           0   0.00000       0.00000    
      4432 BUTA     70       BUTA     C4       CD2O2A    2.36920       11.6110           0  -1.01600      0.899000    
      4433 BUTA     70       BUTA     DC4      DRUD     -1.74920      0.400000           0   0.00000       0.00000    
      4434 BUTA     70       BUTA     O1       OD2C2A    1.45090       15.5994           0 -0.699000       2.39900    
      4435 BUTA     70       BUTA     DO1      DRUD     -1.45090      0.400000           0   0.00000       0.00000    
      4436 BUTA     70       BUTA     O2       OD2C2A    1.45090       15.5994           0 -0.699000       2.39900    
      4437 BUTA     70       BUTA     DO2      DRUD     -1.45090      0.400000           0   0.00000       0.00000    
      4438 BUTA     70       BUTA     H1       HDA3A    0.900000E-01   1.00800           0   0.00000       0.00000    
      4439 BUTA     70       BUTA     H2       HDA3A    0.900000E-01   1.00800           0   0.00000       0.00000    
      4440 BUTA     70       BUTA     H3       HDA3A    0.900000E-01   1.00800           0   0.00000       0.00000    
      4441 BUTA     70       BUTA     H4       HDA2A    0.900000E-01   1.00800           0   0.00000       0.00000    
      4442 BUTA     70       BUTA     H5       HDA2A    0.900000E-01   1.00800           0   0.00000       0.00000    
      4443 BUTA     70       BUTA     H6       HDA2A    0.900000E-01   1.00800           0   0.00000       0.00000    
      4444 BUTA     70       BUTA     H7       HDA2A    0.900000E-01   1.00800           0   0.00000       0.00000    
      4445 BUTA     70       BUTA     H8       DUMH      0.00000       1.00800           0   0.00000       0.00000    
      4446 BUTA     70       BUTA     H9       DUMH      0.00000       1.00800           0   0.00000       0.00000    
      4447 BUTA     70       BUTA     LPO11    LPD     -0.380000       0.00000          -1   0.00000       0.00000    
      4448 BUTA     70       BUTA     LPO12    LPD     -0.380000       0.00000          -1   0.00000       0.00000    
      4449 BUTA     70       BUTA     LPO21    LPD     -0.380000       0.00000          -1   0.00000       0.00000    
      4450 BUTA     70       BUTA     LPO22    LPD     -0.380000       0.00000          -1   0.00000       0.00000    
      4451 BUTA     71       BUTA     C1       CD33A     2.06290       11.6110           0  -1.81190       1.18670    
      4452 BUTA     71       BUTA     DC1      DRUD     -2.33590      0.400000           0   0.00000       0.00000    
      4453 BUTA     71       BUTA     C2       CD32A     2.01970       11.6110           0  -1.59660       1.16930    
      4454 BUTA     71       BUTA     DC2      DRUD     -2.19270      0.400000           0   0.00000       0.00000    
      4455 BUTA     71       BUTA     C3       CD32A     1.90870       11.6110           0  -1.59660       1.16930    
      4456 BUTA     71       BUTA     DC3      DRUD     -2.19270      0.400000           0   0.00000       0.00000    
      4457 BUTA     71       BUTA     C4       CD2O2A    2.36920       11.6110           0  -1.01600      0.899000    
      4458 BUTA     71       BUTA     DC4      DRUD     -1.74920      0.400000           0   0.00000       0.00000    
      4459 BUTA     71       BUTA     O1       OD2C2A    1.45090       15.5994           0 -0.699000       2.39900    
      4460 BUTA     71       BUTA     DO1      DRUD     -1.45090      0.400000           0   0.00000       0.00000    
      4461 BUTA     71       BUTA     O2       OD2C2A    1.45090       15.5994           0 -0.699000       2.39900    
      4462 BUTA     71       BUTA     DO2      DRUD     -1.45090      0.400000           0   0.00000       0.00000    
      4463 BUTA     71       BUTA     H1       HDA3A    0.900000E-01   1.00800           0   0.00000       0.00000    
      4464 BUTA     71       BUTA     H2       HDA3A    0.900000E-01   1.00800           0   0.00000       0.00000    
      4465 BUTA     71       BUTA     H3       HDA3A    0.900000E-01   1.00800           0   0.00000       0.00000    
      4466 BUTA     71       BUTA     H4       HDA2A    0.900000E-01   1.00800           0   0.00000       0.00000    
      4467 BUTA     71       BUTA     H5       HDA2A    0.900000E-01   1.00800           0   0.00000       0.00000    
      4468 BUTA     71       BUTA     H6       HDA2A    0.900000E-01   1.00800           0   0.00000       0.00000    
      4469 BUTA     71       BUTA     H7       HDA2A    0.900000E-01   1.00800           0   0.00000       0.00000    
      4470 BUTA     71       BUTA     H8       DUMH      0.00000       1.00800           0   0.00000       0.00000    
      4471 BUTA     71       BUTA     H9       DUMH      0.00000       1.00800           0   0.00000       0.00000    
      4472 BUTA     71       BUTA     LPO11    LPD     -0.380000       0.00000          -1   0.00000       0.00000    
      4473 BUTA     71       BUTA     LPO12    LPD     -0.380000       0.00000          -1   0.00000       0.00000    
      4474 BUTA     71       BUTA     LPO21    LPD     -0.380000       0.00000          -1   0.00000       0.00000    
      4475 BUTA     71       BUTA     LPO22    LPD     -0.380000       0.00000          -1   0.00000       0.00000    
      4476 BUTA     72       BUTA     C1       CD33A     2.06290       11.6110           0  -1.81190       1.18670    
      4477 BUTA     72       BUTA     DC1      DRUD     -2.33590      0.400000           0   0.00000       0.00000    
      4478 BUTA     72       BUTA     C2       CD32A     2.01970       11.6110           0  -1.59660       1.16930    
      4479 BUTA     72       BUTA     DC2      DRUD     -2.19270      0.400000           0   0.00000       0.00000    
      4480 BUTA     72       BUTA     C3       CD32A     1.90870       11.6110           0  -1.59660       1.16930    
      4481 BUTA     72       BUTA     DC3      DRUD     -2.19270      0.400000           0   0.00000       0.00000    
      4482 BUTA     72       BUTA     C4       CD2O2A    2.36920       11.6110           0  -1.01600      0.899000    
      4483 BUTA     72       BUTA     DC4      DRUD     -1.74920      0.400000           0   0.00000       0.00000    
      4484 BUTA     72       BUTA     O1       OD2C2A    1.45090       15.5994           0 -0.699000       2.39900    
      4485 BUTA     72       BUTA     DO1      DRUD     -1.45090      0.400000           0   0.00000       0.00000    
      4486 BUTA     72       BUTA     O2       OD2C2A    1.45090       15.5994           0 -0.699000       2.39900    
      4487 BUTA     72       BUTA     DO2      DRUD     -1.45090      0.400000           0   0.00000       0.00000    
      4488 BUTA     72       BUTA     H1       HDA3A    0.900000E-01   1.00800           0   0.00000       0.00000    
      4489 BUTA     72       BUTA     H2       HDA3A    0.900000E-01   1.00800           0   0.00000       0.00000    
      4490 BUTA     72       BUTA     H3       HDA3A    0.900000E-01   1.00800           0   0.00000       0.00000    
      4491 BUTA     72       BUTA     H4       HDA2A    0.900000E-01   1.00800           0   0.00000       0.00000    
      4492 BUTA     72       BUTA     H5       HDA2A    0.900000E-01   1.00800           0   0.00000       0.00000    
      4493 BUTA     72       BUTA     H6       HDA2A    0.900000E-01   1.00800           0   0.00000       0.00000    
      4494 BUTA     72       BUTA     H7       HDA2A    0.900000E-01   1.00800           0   0.00000       0.00000    
      4495 BUTA     72       BUTA     H8       DUMH      0.00000       1.00800           0   0.00000       0.00000    
      4496 BUTA     72       BUTA     H9       DUMH      0.00000       1.00800           0   0.00000       0.00000    
      4497 BUTA     72       BUTA     LPO11    LPD     -0.380000       0.00000          -1   0.00000       0.00000    
      4498 BUTA     72       BUTA     LPO12    LPD     -0.380000       0.00000          -1   0.00000       0.00000    
      4499 BUTA     72       BUTA     LPO21    LPD     -0.380000       0.00000          -1   0.00000       0.00000    
      4500 BUTA     72       BUTA     LPO22    LPD     -0.380000       0.00000          -1   0.00000       0.00000    
      4501 BUTA     73       BUTA     C1       CD33A     2.06290       11.6110           0  -1.81190       1.18670    
      4502 BUTA     73       BUTA     DC1      DRUD     -2.33590      0.400000           0   0.00000       0.00000    
      4503 BUTA     73       BUTA     C2       CD32A     2.01970       11.6110           0  -1.59660       1.16930    
      4504 BUTA     73       BUTA     DC2      DRUD     -2.19270      0.400000           0   0.00000       0.00000    
      4505 BUTA     73       BUTA     C3       CD32A     1.90870       11.6110           0  -1.59660       1.16930    
      4506 BUTA     73       BUTA     DC3      DRUD     -2.19270      0.400000           0   0.00000       0.00000    
      4507 BUTA     73       BUTA     C4       CD2O2A    2.36920       11.6110           0  -1.01600      0.899000    
      4508 BUTA     73       BUTA     DC4      DRUD     -1.74920      0.400000           0   0.00000       0.00000    
      4509 BUTA     73       BUTA     O1       OD2C2A    1.45090       15.5994           0 -0.699000       2.39900    
      4510 BUTA     73       BUTA     DO1      DRUD     -1.45090      0.400000           0   0.00000       0.00000    
      4511 BUTA     73       BUTA     O2       OD2C2A    1.45090       15.5994           0 -0.699000       2.39900    
      4512 BUTA     73       BUTA     DO2      DRUD     -1.45090      0.400000           0   0.00000       0.00000    
      4513 BUTA     73       BUTA     H1       HDA3A    0.900000E-01   1.00800           0   0.00000       0.00000    
      4514 BUTA     73       BUTA     H2       HDA3A    0.900000E-01   1.00800           0   0.00000       0.00000    
      4515 BUTA     73       BUTA     H3       HDA3A    0.900000E-01   1.00800           0   0.00000       0.00000    
      4516 BUTA     73       BUTA     H4       HDA2A    0.900000E-01   1.00800           0   0.00000       0.00000    
      4517 BUTA     73       BUTA     H5       HDA2A    0.900000E-01   1.00800           0   0.00000       0.00000    
      4518 BUTA     73       BUTA     H6       HDA2A    0.900000E-01   1.00800           0   0.00000       0.00000    
      4519 BUTA     73       BUTA     H7       HDA2A    0.900000E-01   1.00800           0   0.00000       0.00000    
      4520 BUTA     73       BUTA     H8       DUMH      0.00000       1.00800           0   0.00000       0.00000    
      4521 BUTA     73       BUTA     H9       DUMH      0.00000       1.00800           0   0.00000       0.00000    
      4522 BUTA     73       BUTA     LPO11    LPD     -0.380000       0.00000          -1   0.00000       0.00000    
      4523 BUTA     73       BUTA     LPO12    LPD     -0.380000       0.00000          -1   0.00000       0.00000    
      4524 BUTA     73       BUTA     LPO21    LPD     -0.380000       0.00000          -1   0.00000       0.00000    
      4525 BUTA     73       BUTA     LPO22    LPD     -0.380000       0.00000          -1   0.00000       0.00000    
      4526 BUTA     74       BUTA     C1       CD33A     2.06290       11.6110           0  -1.81190       1.18670    
      4527 BUTA     74       BUTA     DC1      DRUD     -2.33590      0.400000           0   0.00000       0.00000    
      4528 BUTA     74       BUTA     C2       CD32A     2.01970       11.6110           0  -1.59660       1.16930    
      4529 BUTA     74       BUTA     DC2      DRUD     -2.19270      0.400000           0   0.00000       0.00000    
      4530 BUTA     74       BUTA     C3       CD32A     1.90870       11.6110           0  -1.59660       1.16930    
      4531 BUTA     74       BUTA     DC3      DRUD     -2.19270      0.400000           0   0.00000       0.00000    
      4532 BUTA     74       BUTA     C4       CD2O2A    2.36920       11.6110           0  -1.01600      0.899000    
      4533 BUTA     74       BUTA     DC4      DRUD     -1.74920      0.400000           0   0.00000       0.00000    
      4534 BUTA     74       BUTA     O1       OD2C2A    1.45090       15.5994           0 -0.699000       2.39900    
      4535 BUTA     74       BUTA     DO1      DRUD     -1.45090      0.400000           0   0.00000       0.00000    
      4536 BUTA     74       BUTA     O2       OD2C2A    1.45090       15.5994           0 -0.699000       2.39900    
      4537 BUTA     74       BUTA     DO2      DRUD     -1.45090      0.400000           0   0.00000       0.00000    
      4538 BUTA     74       BUTA     H1       HDA3A    0.900000E-01   1.00800           0   0.00000       0.00000    
      4539 BUTA     74       BUTA     H2       HDA3A    0.900000E-01   1.00800           0   0.00000       0.00000    
      4540 BUTA     74       BUTA     H3       HDA3A    0.900000E-01   1.00800           0   0.00000       0.00000    
      4541 BUTA     74       BUTA     H4       HDA2A    0.900000E-01   1.00800           0   0.00000       0.00000    
      4542 BUTA     74       BUTA     H5       HDA2A    0.900000E-01   1.00800           0   0.00000       0.00000    
      4543 BUTA     74       BUTA     H6       HDA2A    0.900000E-01   1.00800           0   0.00000       0.00000    
      4544 BUTA     74       BUTA     H7       HDA2A    0.900000E-01   1.00800           0   0.00000       0.00000    
      4545 BUTA     74       BUTA     H8       DUMH      0.00000       1.00800           0   0.00000       0.00000    
      4546 BUTA     74       BUTA     H9       DUMH      0.00000       1.00800           0   0.00000       0.00000    
      4547 BUTA     74       BUTA     LPO11    LPD     -0.380000       0.00000          -1   0.00000       0.00000    
      4548 BUTA     74       BUTA     LPO12    LPD     -0.380000       0.00000          -1   0.00000       0.00000    
      4549 BUTA     74       BUTA     LPO21    LPD     -0.380000       0.00000          -1   0.00000       0.00000    
      4550 BUTA     74       BUTA     LPO22    LPD     -0.380000       0.00000          -1   0.00000       0.00000    
      4551 BUTA     75       BUTA     C1       CD33A     2.06290       11.6110           0  -1.81190       1.18670    
      4552 BUTA     75       BUTA     DC1      DRUD     -2.33590      0.400000           0   0.00000       0.00000    
      4553 BUTA     75       BUTA     C2       CD32A     2.01970       11.6110           0  -1.59660       1.16930    
      4554 BUTA     75       BUTA     DC2      DRUD     -2.19270      0.400000           0   0.00000       0.00000    
      4555 BUTA     75       BUTA     C3       CD32A     1.90870       11.6110           0  -1.59660       1.16930    
      4556 BUTA     75       BUTA     DC3      DRUD     -2.19270      0.400000           0   0.00000       0.00000    
      4557 BUTA     75       BUTA     C4       CD2O2A    2.36920       11.6110           0  -1.01600      0.899000    
      4558 BUTA     75       BUTA     DC4      DRUD     -1.74920      0.400000           0   0.00000       0.00000    
      4559 BUTA     75       BUTA     O1       OD2C2A    1.45090       15.5994           0 -0.699000       2.39900    
      4560 BUTA     75       BUTA     DO1      DRUD     -1.45090      0.400000           0   0.00000       0.00000    
      4561 BUTA     75       BUTA     O2       OD2C2A    1.45090       15.5994           0 -0.699000       2.39900    
      4562 BUTA     75       BUTA     DO2      DRUD     -1.45090      0.400000           0   0.00000       0.00000    
      4563 BUTA     75       BUTA     H1       HDA3A    0.900000E-01   1.00800           0   0.00000       0.00000    
      4564 BUTA     75       BUTA     H2       HDA3A    0.900000E-01   1.00800           0   0.00000       0.00000    
      4565 BUTA     75       BUTA     H3       HDA3A    0.900000E-01   1.00800           0   0.00000       0.00000    
      4566 BUTA     75       BUTA     H4       HDA2A    0.900000E-01   1.00800           0   0.00000       0.00000    
      4567 BUTA     75       BUTA     H5       HDA2A    0.900000E-01   1.00800           0   0.00000       0.00000    
      4568 BUTA     75       BUTA     H6       HDA2A    0.900000E-01   1.00800           0   0.00000       0.00000    
      4569 BUTA     75       BUTA     H7       HDA2A    0.900000E-01   1.00800           0   0.00000       0.00000    
      4570 BUTA     75       BUTA     H8       DUMH      0.00000       1.00800           0   0.00000       0.00000    
      4571 BUTA     75       BUTA     H9       DUMH      0.00000       1.00800           0   0.00000       0.00000    
      4572 BUTA     75       BUTA     LPO11    LPD     -0.380000       0.00000          -1   0.00000       0.00000    
      4573 BUTA     75       BUTA     LPO12    LPD     -0.380000       0.00000          -1   0.00000       0.00000    
      4574 BUTA     75       BUTA     LPO21    LPD     -0.380000       0.00000          -1   0.00000       0.00000    
      4575 BUTA     75       BUTA     LPO22    LPD     -0.380000       0.00000          -1   0.00000       0.00000    
      4576 BUTA     76       BUTA     C1       CD33A     2.06290       11.6110           0  -1.81190       1.18670    
      4577 BUTA     76       BUTA     DC1      DRUD     -2.33590      0.400000           0   0.00000       0.00000    
      4578 BUTA     76       BUTA     C2       CD32A     2.01970       11.6110           0  -1.59660       1.16930    
      4579 BUTA     76       BUTA     DC2      DRUD     -2.19270      0.400000           0   0.00000       0.00000    
      4580 BUTA     76       BUTA     C3       CD32A     1.90870       11.6110           0  -1.59660       1.16930    
      4581 BUTA     76       BUTA     DC3      DRUD     -2.19270      0.400000           0   0.00000       0.00000    
      4582 BUTA     76       BUTA     C4       CD2O2A    2.36920       11.6110           0  -1.01600      0.899000    
      4583 BUTA     76       BUTA     DC4      DRUD     -1.74920      0.400000           0   0.00000       0.00000    
      4584 BUTA     76       BUTA     O1       OD2C2A    1.45090       15.5994           0 -0.699000       2.39900    
      4585 BUTA     76       BUTA     DO1      DRUD     -1.45090      0.400000           0   0.00000       0.00000    
      4586 BUTA     76       BUTA     O2       OD2C2A    1.45090       15.5994           0 -0.699000       2.39900    
      4587 BUTA     76       BUTA     DO2      DRUD     -1.45090      0.400000           0   0.00000       0.00000    
      4588 BUTA     76       BUTA     H1       HDA3A    0.900000E-01   1.00800           0   0.00000       0.00000    
      4589 BUTA     76       BUTA     H2       HDA3A    0.900000E-01   1.00800           0   0.00000       0.00000    
      4590 BUTA     76       BUTA     H3       HDA3A    0.900000E-01   1.00800           0   0.00000       0.00000    
      4591 BUTA     76       BUTA     H4       HDA2A    0.900000E-01   1.00800           0   0.00000       0.00000    
      4592 BUTA     76       BUTA     H5       HDA2A    0.900000E-01   1.00800           0   0.00000       0.00000    
      4593 BUTA     76       BUTA     H6       HDA2A    0.900000E-01   1.00800           0   0.00000       0.00000    
      4594 BUTA     76       BUTA     H7       HDA2A    0.900000E-01   1.00800           0   0.00000       0.00000    
      4595 BUTA     76       BUTA     H8       DUMH      0.00000       1.00800           0   0.00000       0.00000    
      4596 BUTA     76       BUTA     H9       DUMH      0.00000       1.00800           0   0.00000       0.00000    
      4597 BUTA     76       BUTA     LPO11    LPD     -0.380000       0.00000          -1   0.00000       0.00000    
      4598 BUTA     76       BUTA     LPO12    LPD     -0.380000       0.00000          -1   0.00000       0.00000    
      4599 BUTA     76       BUTA     LPO21    LPD     -0.380000       0.00000          -1   0.00000       0.00000    
      4600 BUTA     76       BUTA     LPO22    LPD     -0.380000       0.00000          -1   0.00000       0.00000    
      4601 BUTA     77       BUTA     C1       CD33A     2.06290       11.6110           0  -1.81190       1.18670    
      4602 BUTA     77       BUTA     DC1      DRUD     -2.33590      0.400000           0   0.00000       0.00000    
      4603 BUTA     77       BUTA     C2       CD32A     2.01970       11.6110           0  -1.59660       1.16930    
      4604 BUTA     77       BUTA     DC2      DRUD     -2.19270      0.400000           0   0.00000       0.00000    
      4605 BUTA     77       BUTA     C3       CD32A     1.90870       11.6110           0  -1.59660       1.16930    
      4606 BUTA     77       BUTA     DC3      DRUD     -2.19270      0.400000           0   0.00000       0.00000    
      4607 BUTA     77       BUTA     C4       CD2O2A    2.36920       11.6110           0  -1.01600      0.899000    
      4608 BUTA     77       BUTA     DC4      DRUD     -1.74920      0.400000           0   0.00000       0.00000    
      4609 BUTA     77       BUTA     O1       OD2C2A    1.45090       15.5994           0 -0.699000       2.39900    
      4610 BUTA     77       BUTA     DO1      DRUD     -1.45090      0.400000           0   0.00000       0.00000    
      4611 BUTA     77       BUTA     O2       OD2C2A    1.45090       15.5994           0 -0.699000       2.39900    
      4612 BUTA     77       BUTA     DO2      DRUD     -1.45090      0.400000           0   0.00000       0.00000    
      4613 BUTA     77       BUTA     H1       HDA3A    0.900000E-01   1.00800           0   0.00000       0.00000    
      4614 BUTA     77       BUTA     H2       HDA3A    0.900000E-01   1.00800           0   0.00000       0.00000    
      4615 BUTA     77       BUTA     H3       HDA3A    0.900000E-01   1.00800           0   0.00000       0.00000    
      4616 BUTA     77       BUTA     H4       HDA2A    0.900000E-01   1.00800           0   0.00000       0.00000    
      4617 BUTA     77       BUTA     H5       HDA2A    0.900000E-01   1.00800           0   0.00000       0.00000    
      4618 BUTA     77       BUTA     H6       HDA2A    0.900000E-01   1.00800           0   0.00000       0.00000    
      4619 BUTA     77       BUTA     H7       HDA2A    0.900000E-01   1.00800           0   0.00000       0.00000    
      4620 BUTA     77       BUTA     H8       DUMH      0.00000       1.00800           0   0.00000       0.00000    
      4621 BUTA     77       BUTA     H9       DUMH      0.00000       1.00800           0   0.00000       0.00000    
      4622 BUTA     77       BUTA     LPO11    LPD     -0.380000       0.00000          -1   0.00000       0.00000    
      4623 BUTA     77       BUTA     LPO12    LPD     -0.380000       0.00000          -1   0.00000       0.00000    
      4624 BUTA     77       BUTA     LPO21    LPD     -0.380000       0.00000          -1   0.00000       0.00000    
      4625 BUTA     77       BUTA     LPO22    LPD     -0.380000       0.00000          -1   0.00000       0.00000    
      4626 BUTA     78       BUTA     C1       CD33A     2.06290       11.6110           0  -1.81190       1.18670    
      4627 BUTA     78       BUTA     DC1      DRUD     -2.33590      0.400000           0   0.00000       0.00000    
      4628 BUTA     78       BUTA     C2       CD32A     2.01970       11.6110           0  -1.59660       1.16930    
      4629 BUTA     78       BUTA     DC2      DRUD     -2.19270      0.400000           0   0.00000       0.00000    
      4630 BUTA     78       BUTA     C3       CD32A     1.90870       11.6110           0  -1.59660       1.16930    
      4631 BUTA     78       BUTA     DC3      DRUD     -2.19270      0.400000           0   0.00000       0.00000    
      4632 BUTA     78       BUTA     C4       CD2O2A    2.36920       11.6110           0  -1.01600      0.899000    
      4633 BUTA     78       BUTA     DC4      DRUD     -1.74920      0.400000           0   0.00000       0.00000    
      4634 BUTA     78       BUTA     O1       OD2C2A    1.45090       15.5994           0 -0.699000       2.39900    
      4635 BUTA     78       BUTA     DO1      DRUD     -1.45090      0.400000           0   0.00000       0.00000    
      4636 BUTA     78       BUTA     O2       OD2C2A    1.45090       15.5994           0 -0.699000       2.39900    
      4637 BUTA     78       BUTA     DO2      DRUD     -1.45090      0.400000           0   0.00000       0.00000    
      4638 BUTA     78       BUTA     H1       HDA3A    0.900000E-01   1.00800           0   0.00000       0.00000    
      4639 BUTA     78       BUTA     H2       HDA3A    0.900000E-01   1.00800           0   0.00000       0.00000    
      4640 BUTA     78       BUTA     H3       HDA3A    0.900000E-01   1.00800           0   0.00000       0.00000    
      4641 BUTA     78       BUTA     H4       HDA2A    0.900000E-01   1.00800           0   0.00000       0.00000    
      4642 BUTA     78       BUTA     H5       HDA2A    0.900000E-01   1.00800           0   0.00000       0.00000    
      4643 BUTA     78       BUTA     H6       HDA2A    0.900000E-01   1.00800           0   0.00000       0.00000    
      4644 BUTA     78       BUTA     H7       HDA2A    0.900000E-01   1.00800           0   0.00000       0.00000    
      4645 BUTA     78       BUTA     H8       DUMH      0.00000       1.00800           0   0.00000       0.00000    
      4646 BUTA     78       BUTA     H9       DUMH      0.00000       1.00800           0   0.00000       0.00000    
      4647 BUTA     78       BUTA     LPO11    LPD     -0.380000       0.00000          -1   0.00000       0.00000    
      4648 BUTA     78       BUTA     LPO12    LPD     -0.380000       0.00000          -1   0.00000       0.00000    
      4649 BUTA     78       BUTA     LPO21    LPD     -0.380000       0.00000          -1   0.00000       0.00000    
      4650 BUTA     78       BUTA     LPO22    LPD     -0.380000       0.00000          -1   0.00000       0.00000    
      4651 BUTA     79       BUTA     C1       CD33A     2.06290       11.6110           0  -1.81190       1.18670    
      4652 BUTA     79       BUTA     DC1      DRUD     -2.33590      0.400000           0   0.00000       0.00000    
      4653 BUTA     79       BUTA     C2       CD32A     2.01970       11.6110           0  -1.59660       1.16930    
      4654 BUTA     79       BUTA     DC2      DRUD     -2.19270      0.400000           0   0.00000       0.00000    
      4655 BUTA     79       BUTA     C3       CD32A     1.90870       11.6110           0  -1.59660       1.16930    
      4656 BUTA     79       BUTA     DC3      DRUD     -2.19270      0.400000           0   0.00000       0.00000    
      4657 BUTA     79       BUTA     C4       CD2O2A    2.36920       11.6110           0  -1.01600      0.899000    
      4658 BUTA     79       BUTA     DC4      DRUD     -1.74920      0.400000           0   0.00000       0.00000    
      4659 BUTA     79       BUTA     O1       OD2C2A    1.45090       15.5994           0 -0.699000       2.39900    
      4660 BUTA     79       BUTA     DO1      DRUD     -1.45090      0.400000           0   0.00000       0.00000    
      4661 BUTA     79       BUTA     O2       OD2C2A    1.45090       15.5994           0 -0.699000       2.39900    
      4662 BUTA     79       BUTA     DO2      DRUD     -1.45090      0.400000           0   0.00000       0.00000    
      4663 BUTA     79       BUTA     H1       HDA3A    0.900000E-01   1.00800           0   0.00000       0.00000    
      4664 BUTA     79       BUTA     H2       HDA3A    0.900000E-01   1.00800           0   0.00000       0.00000    
      4665 BUTA     79       BUTA     H3       HDA3A    0.900000E-01   1.00800           0   0.00000       0.00000    
      4666 BUTA     79       BUTA     H4       HDA2A    0.900000E-01   1.00800           0   0.00000       0.00000    
      4667 BUTA     79       BUTA     H5       HDA2A    0.900000E-01   1.00800           0   0.00000       0.00000    
      4668 BUTA     79       BUTA     H6       HDA2A    0.900000E-01   1.00800           0   0.00000       0.00000    
      4669 BUTA     79       BUTA     H7       HDA2A    0.900000E-01   1.00800           0   0.00000       0.00000    
      4670 BUTA     79       BUTA     H8       DUMH      0.00000       1.00800           0   0.00000       0.00000    
      4671 BUTA     79       BUTA     H9       DUMH      0.00000       1.00800           0   0.00000       0.00000    
      4672 BUTA     79       BUTA     LPO11    LPD     -0.380000       0.00000          -1   0.00000       0.00000    
      4673 BUTA     79       BUTA     LPO12    LPD     -0.380000       0.00000          -1   0.00000       0.00000    
      4674 BUTA     79       BUTA     LPO21    LPD     -0.380000       0.00000          -1   0.00000       0.00000    
      4675 BUTA     79       BUTA     LPO22    LPD     -0.380000       0.00000          -1   0.00000       0.00000    
      4676 BUTA     80       BUTA     C1       CD33A     2.06290       11.6110           0  -1.81190       1.18670    
      4677 BUTA     80       BUTA     DC1      DRUD     -2.33590      0.400000           0   0.00000       0.00000    
      4678 BUTA     80       BUTA     C2       CD32A     2.01970       11.6110           0  -1.59660       1.16930    
      4679 BUTA     80       BUTA     DC2      DRUD     -2.19270      0.400000           0   0.00000       0.00000    
      4680 BUTA     80       BUTA     C3       CD32A     1.90870       11.6110           0  -1.59660       1.16930    
      4681 BUTA     80       BUTA     DC3      DRUD     -2.19270      0.400000           0   0.00000       0.00000    
      4682 BUTA     80       BUTA     C4       CD2O2A    2.36920       11.6110           0  -1.01600      0.899000    
      4683 BUTA     80       BUTA     DC4      DRUD     -1.74920      0.400000           0   0.00000       0.00000    
      4684 BUTA     80       BUTA     O1       OD2C2A    1.45090       15.5994           0 -0.699000       2.39900    
      4685 BUTA     80       BUTA     DO1      DRUD     -1.45090      0.400000           0   0.00000       0.00000    
      4686 BUTA     80       BUTA     O2       OD2C2A    1.45090       15.5994           0 -0.699000       2.39900    
      4687 BUTA     80       BUTA     DO2      DRUD     -1.45090      0.400000           0   0.00000       0.00000    
      4688 BUTA     80       BUTA     H1       HDA3A    0.900000E-01   1.00800           0   0.00000       0.00000    
      4689 BUTA     80       BUTA     H2       HDA3A    0.900000E-01   1.00800           0   0.00000       0.00000    
      4690 BUTA     80       BUTA     H3       HDA3A    0.900000E-01   1.00800           0   0.00000       0.00000    
      4691 BUTA     80       BUTA     H4       HDA2A    0.900000E-01   1.00800           0   0.00000       0.00000    
      4692 BUTA     80       BUTA     H5       HDA2A    0.900000E-01   1.00800           0   0.00000       0.00000    
      4693 BUTA     80       BUTA     H6       HDA2A    0.900000E-01   1.00800           0   0.00000       0.00000    
      4694 BUTA     80       BUTA     H7       HDA2A    0.900000E-01   1.00800           0   0.00000       0.00000    
      4695 BUTA     80       BUTA     H8       DUMH      0.00000       1.00800           0   0.00000       0.00000    
      4696 BUTA     80       BUTA     H9       DUMH      0.00000       1.00800           0   0.00000       0.00000    
      4697 BUTA     80       BUTA     LPO11    LPD     -0.380000       0.00000          -1   0.00000       0.00000    
      4698 BUTA     80       BUTA     LPO12    LPD     -0.380000       0.00000          -1   0.00000       0.00000    
      4699 BUTA     80       BUTA     LPO21    LPD     -0.380000       0.00000          -1   0.00000       0.00000    
      4700 BUTA     80       BUTA     LPO22    LPD     -0.380000       0.00000          -1   0.00000       0.00000    
      4701 BUTA     81       BUTA     C1       CD33A     2.06290       11.6110           0  -1.81190       1.18670    
      4702 BUTA     81       BUTA     DC1      DRUD     -2.33590      0.400000           0   0.00000       0.00000    
      4703 BUTA     81       BUTA     C2       CD32A     2.01970       11.6110           0  -1.59660       1.16930    
      4704 BUTA     81       BUTA     DC2      DRUD     -2.19270      0.400000           0   0.00000       0.00000    
      4705 BUTA     81       BUTA     C3       CD32A     1.90870       11.6110           0  -1.59660       1.16930    
      4706 BUTA     81       BUTA     DC3      DRUD     -2.19270      0.400000           0   0.00000       0.00000    
      4707 BUTA     81       BUTA     C4       CD2O2A    2.36920       11.6110           0  -1.01600      0.899000    
      4708 BUTA     81       BUTA     DC4      DRUD     -1.74920      0.400000           0   0.00000       0.00000    
      4709 BUTA     81       BUTA     O1       OD2C2A    1.45090       15.5994           0 -0.699000       2.39900    
      4710 BUTA     81       BUTA     DO1      DRUD     -1.45090      0.400000           0   0.00000       0.00000    
      4711 BUTA     81       BUTA     O2       OD2C2A    1.45090       15.5994           0 -0.699000       2.39900    
      4712 BUTA     81       BUTA     DO2      DRUD     -1.45090      0.400000           0   0.00000       0.00000    
      4713 BUTA     81       BUTA     H1       HDA3A    0.900000E-01   1.00800           0   0.00000       0.00000    
      4714 BUTA     81       BUTA     H2       HDA3A    0.900000E-01   1.00800           0   0.00000       0.00000    
      4715 BUTA     81       BUTA     H3       HDA3A    0.900000E-01   1.00800           0   0.00000       0.00000    
      4716 BUTA     81       BUTA     H4       HDA2A    0.900000E-01   1.00800           0   0.00000       0.00000    
      4717 BUTA     81       BUTA     H5       HDA2A    0.900000E-01   1.00800           0   0.00000       0.00000    
      4718 BUTA     81       BUTA     H6       HDA2A    0.900000E-01   1.00800           0   0.00000       0.00000    
      4719 BUTA     81       BUTA     H7       HDA2A    0.900000E-01   1.00800           0   0.00000       0.00000    
      4720 BUTA     81       BUTA     H8       DUMH      0.00000       1.00800           0   0.00000       0.00000    
      4721 BUTA     81       BUTA     H9       DUMH      0.00000       1.00800           0   0.00000       0.00000    
      4722 BUTA     81       BUTA     LPO11    LPD     -0.380000       0.00000          -1   0.00000       0.00000    
      4723 BUTA     81       BUTA     LPO12    LPD     -0.380000       0.00000          -1   0.00000       0.00000    
      4724 BUTA     81       BUTA     LPO21    LPD     -0.380000       0.00000          -1   0.00000       0.00000    
      4725 BUTA     81       BUTA     LPO22    LPD     -0.380000       0.00000          -1   0.00000       0.00000    
      4726 BUTA     82       BUTA     C1       CD33A     2.06290       11.6110           0  -1.81190       1.18670    
      4727 BUTA     82       BUTA     DC1      DRUD     -2.33590      0.400000           0   0.00000       0.00000    
      4728 BUTA     82       BUTA     C2       CD32A     2.01970       11.6110           0  -1.59660       1.16930    
      4729 BUTA     82       BUTA     DC2      DRUD     -2.19270      0.400000           0   0.00000       0.00000    
      4730 BUTA     82       BUTA     C3       CD32A     1.90870       11.6110           0  -1.59660       1.16930    
      4731 BUTA     82       BUTA     DC3      DRUD     -2.19270      0.400000           0   0.00000       0.00000    
      4732 BUTA     82       BUTA     C4       CD2O2A    2.36920       11.6110           0  -1.01600      0.899000    
      4733 BUTA     82       BUTA     DC4      DRUD     -1.74920      0.400000           0   0.00000       0.00000    
      4734 BUTA     82       BUTA     O1       OD2C2A    1.45090       15.5994           0 -0.699000       2.39900    
      4735 BUTA     82       BUTA     DO1      DRUD     -1.45090      0.400000           0   0.00000       0.00000    
      4736 BUTA     82       BUTA     O2       OD2C2A    1.45090       15.5994           0 -0.699000       2.39900    
      4737 BUTA     82       BUTA     DO2      DRUD     -1.45090      0.400000           0   0.00000       0.00000    
      4738 BUTA     82       BUTA     H1       HDA3A    0.900000E-01   1.00800           0   0.00000       0.00000    
      4739 BUTA     82       BUTA     H2       HDA3A    0.900000E-01   1.00800           0   0.00000       0.00000    
      4740 BUTA     82       BUTA     H3       HDA3A    0.900000E-01   1.00800           0   0.00000       0.00000    
      4741 BUTA     82       BUTA     H4       HDA2A    0.900000E-01   1.00800           0   0.00000       0.00000    
      4742 BUTA     82       BUTA     H5       HDA2A    0.900000E-01   1.00800           0   0.00000       0.00000    
      4743 BUTA     82       BUTA     H6       HDA2A    0.900000E-01   1.00800           0   0.00000       0.00000    
      4744 BUTA     82       BUTA     H7       HDA2A    0.900000E-01   1.00800           0   0.00000       0.00000    
      4745 BUTA     82       BUTA     H8       DUMH      0.00000       1.00800           0   0.00000       0.00000    
      4746 BUTA     82       BUTA     H9       DUMH      0.00000       1.00800           0   0.00000       0.00000    
      4747 BUTA     82       BUTA     LPO11    LPD     -0.380000       0.00000          -1   0.00000       0.00000    
      4748 BUTA     82       BUTA     LPO12    LPD     -0.380000       0.00000          -1   0.00000       0.00000    
      4749 BUTA     82       BUTA     LPO21    LPD     -0.380000       0.00000          -1   0.00000       0.00000    
      4750 BUTA     82       BUTA     LPO22    LPD     -0.380000       0.00000          -1   0.00000       0.00000    
      4751 BUTA     83       BUTA     C1       CD33A     2.06290       11.6110           0  -1.81190       1.18670    
      4752 BUTA     83       BUTA     DC1      DRUD     -2.33590      0.400000           0   0.00000       0.00000    
      4753 BUTA     83       BUTA     C2       CD32A     2.01970       11.6110           0  -1.59660       1.16930    
      4754 BUTA     83       BUTA     DC2      DRUD     -2.19270      0.400000           0   0.00000       0.00000    
      4755 BUTA     83       BUTA     C3       CD32A     1.90870       11.6110           0  -1.59660       1.16930    
      4756 BUTA     83       BUTA     DC3      DRUD     -2.19270      0.400000           0   0.00000       0.00000    
      4757 BUTA     83       BUTA     C4       CD2O2A    2.36920       11.6110           0  -1.01600      0.899000    
      4758 BUTA     83       BUTA     DC4      DRUD     -1.74920      0.400000           0   0.00000       0.00000    
      4759 BUTA     83       BUTA     O1       OD2C2A    1.45090       15.5994           0 -0.699000       2.39900    
      4760 BUTA     83       BUTA     DO1      DRUD     -1.45090      0.400000           0   0.00000       0.00000    
      4761 BUTA     83       BUTA     O2       OD2C2A    1.45090       15.5994           0 -0.699000       2.39900    
      4762 BUTA     83       BUTA     DO2      DRUD     -1.45090      0.400000           0   0.00000       0.00000    
      4763 BUTA     83       BUTA     H1       HDA3A    0.900000E-01   1.00800           0   0.00000       0.00000    
      4764 BUTA     83       BUTA     H2       HDA3A    0.900000E-01   1.00800           0   0.00000       0.00000    
      4765 BUTA     83       BUTA     H3       HDA3A    0.900000E-01   1.00800           0   0.00000       0.00000    
      4766 BUTA     83       BUTA     H4       HDA2A    0.900000E-01   1.00800           0   0.00000       0.00000    
      4767 BUTA     83       BUTA     H5       HDA2A    0.900000E-01   1.00800           0   0.00000       0.00000    
      4768 BUTA     83       BUTA     H6       HDA2A    0.900000E-01   1.00800           0   0.00000       0.00000    
      4769 BUTA     83       BUTA     H7       HDA2A    0.900000E-01   1.00800           0   0.00000       0.00000    
      4770 BUTA     83       BUTA     H8       DUMH      0.00000       1.00800           0   0.00000       0.00000    
      4771 BUTA     83       BUTA     H9       DUMH      0.00000       1.00800           0   0.00000       0.00000    
      4772 BUTA     83       BUTA     LPO11    LPD     -0.380000       0.00000          -1   0.00000       0.00000    
      4773 BUTA     83       BUTA     LPO12    LPD     -0.380000       0.00000          -1   0.00000       0.00000    
      4774 BUTA     83       BUTA     LPO21    LPD     -0.380000       0.00000          -1   0.00000       0.00000    
      4775 BUTA     83       BUTA     LPO22    LPD     -0.380000       0.00000          -1   0.00000       0.00000    
      4776 BUTA     84       BUTA     C1       CD33A     2.06290       11.6110           0  -1.81190       1.18670    
      4777 BUTA     84       BUTA     DC1      DRUD     -2.33590      0.400000           0   0.00000       0.00000    
      4778 BUTA     84       BUTA     C2       CD32A     2.01970       11.6110           0  -1.59660       1.16930    
      4779 BUTA     84       BUTA     DC2      DRUD     -2.19270      0.400000           0   0.00000       0.00000    
      4780 BUTA     84       BUTA     C3       CD32A     1.90870       11.6110           0  -1.59660       1.16930    
      4781 BUTA     84       BUTA     DC3      DRUD     -2.19270      0.400000           0   0.00000       0.00000    
      4782 BUTA     84       BUTA     C4       CD2O2A    2.36920       11.6110           0  -1.01600      0.899000    
      4783 BUTA     84       BUTA     DC4      DRUD     -1.74920      0.400000           0   0.00000       0.00000    
      4784 BUTA     84       BUTA     O1       OD2C2A    1.45090       15.5994           0 -0.699000       2.39900    
      4785 BUTA     84       BUTA     DO1      DRUD     -1.45090      0.400000           0   0.00000       0.00000    
      4786 BUTA     84       BUTA     O2       OD2C2A    1.45090       15.5994           0 -0.699000       2.39900    
      4787 BUTA     84       BUTA     DO2      DRUD     -1.45090      0.400000           0   0.00000       0.00000    
      4788 BUTA     84       BUTA     H1       HDA3A    0.900000E-01   1.00800           0   0.00000       0.00000    
      4789 BUTA     84       BUTA     H2       HDA3A    0.900000E-01   1.00800           0   0.00000       0.00000    
      4790 BUTA     84       BUTA     H3       HDA3A    0.900000E-01   1.00800           0   0.00000       0.00000    
      4791 BUTA     84       BUTA     H4       HDA2A    0.900000E-01   1.00800           0   0.00000       0.00000    
      4792 BUTA     84       BUTA     H5       HDA2A    0.900000E-01   1.00800           0   0.00000       0.00000    
      4793 BUTA     84       BUTA     H6       HDA2A    0.900000E-01   1.00800           0   0.00000       0.00000    
      4794 BUTA     84       BUTA     H7       HDA2A    0.900000E-01   1.00800           0   0.00000       0.00000    
      4795 BUTA     84       BUTA     H8       DUMH      0.00000       1.00800           0   0.00000       0.00000    
      4796 BUTA     84       BUTA     H9       DUMH      0.00000       1.00800           0   0.00000       0.00000    
      4797 BUTA     84       BUTA     LPO11    LPD     -0.380000       0.00000          -1   0.00000       0.00000    
      4798 BUTA     84       BUTA     LPO12    LPD     -0.380000       0.00000          -1   0.00000       0.00000    
      4799 BUTA     84       BUTA     LPO21    LPD     -0.380000       0.00000          -1   0.00000       0.00000    
      4800 BUTA     84       BUTA     LPO22    LPD     -0.380000       0.00000          -1   0.00000       0.00000    
      4801 BUTA     85       BUTA     C1       CD33A     2.06290       11.6110           0  -1.81190       1.18670    
      4802 BUTA     85       BUTA     DC1      DRUD     -2.33590      0.400000           0   0.00000       0.00000    
      4803 BUTA     85       BUTA     C2       CD32A     2.01970       11.6110           0  -1.59660       1.16930    
      4804 BUTA     85       BUTA     DC2      DRUD     -2.19270      0.400000           0   0.00000       0.00000    
      4805 BUTA     85       BUTA     C3       CD32A     1.90870       11.6110           0  -1.59660       1.16930    
      4806 BUTA     85       BUTA     DC3      DRUD     -2.19270      0.400000           0   0.00000       0.00000    
      4807 BUTA     85       BUTA     C4       CD2O2A    2.36920       11.6110           0  -1.01600      0.899000    
      4808 BUTA     85       BUTA     DC4      DRUD     -1.74920      0.400000           0   0.00000       0.00000    
      4809 BUTA     85       BUTA     O1       OD2C2A    1.45090       15.5994           0 -0.699000       2.39900    
      4810 BUTA     85       BUTA     DO1      DRUD     -1.45090      0.400000           0   0.00000       0.00000    
      4811 BUTA     85       BUTA     O2       OD2C2A    1.45090       15.5994           0 -0.699000       2.39900    
      4812 BUTA     85       BUTA     DO2      DRUD     -1.45090      0.400000           0   0.00000       0.00000    
      4813 BUTA     85       BUTA     H1       HDA3A    0.900000E-01   1.00800           0   0.00000       0.00000    
      4814 BUTA     85       BUTA     H2       HDA3A    0.900000E-01   1.00800           0   0.00000       0.00000    
      4815 BUTA     85       BUTA     H3       HDA3A    0.900000E-01   1.00800           0   0.00000       0.00000    
      4816 BUTA     85       BUTA     H4       HDA2A    0.900000E-01   1.00800           0   0.00000       0.00000    
      4817 BUTA     85       BUTA     H5       HDA2A    0.900000E-01   1.00800           0   0.00000       0.00000    
      4818 BUTA     85       BUTA     H6       HDA2A    0.900000E-01   1.00800           0   0.00000       0.00000    
      4819 BUTA     85       BUTA     H7       HDA2A    0.900000E-01   1.00800           0   0.00000       0.00000    
      4820 BUTA     85       BUTA     H8       DUMH      0.00000       1.00800           0   0.00000       0.00000    
      4821 BUTA     85       BUTA     H9       DUMH      0.00000       1.00800           0   0.00000       0.00000    
      4822 BUTA     85       BUTA     LPO11    LPD     -0.380000       0.00000          -1   0.00000       0.00000    
      4823 BUTA     85       BUTA     LPO12    LPD     -0.380000       0.00000          -1   0.00000       0.00000    
      4824 BUTA     85       BUTA     LPO21    LPD     -0.380000       0.00000          -1   0.00000       0.00000    
      4825 BUTA     85       BUTA     LPO22    LPD     -0.380000       0.00000          -1   0.00000       0.00000    
      4826 BUTA     86       BUTA     C1       CD33A     2.06290       11.6110           0  -1.81190       1.18670    
      4827 BUTA     86       BUTA     DC1      DRUD     -2.33590      0.400000           0   0.00000       0.00000    
      4828 BUTA     86       BUTA     C2       CD32A     2.01970       11.6110           0  -1.59660       1.16930    
      4829 BUTA     86       BUTA     DC2      DRUD     -2.19270      0.400000           0   0.00000       0.00000    
      4830 BUTA     86       BUTA     C3       CD32A     1.90870       11.6110           0  -1.59660       1.16930    
      4831 BUTA     86       BUTA     DC3      DRUD     -2.19270      0.400000           0   0.00000       0.00000    
      4832 BUTA     86       BUTA     C4       CD2O2A    2.36920       11.6110           0  -1.01600      0.899000    
      4833 BUTA     86       BUTA     DC4      DRUD     -1.74920      0.400000           0   0.00000       0.00000    
      4834 BUTA     86       BUTA     O1       OD2C2A    1.45090       15.5994           0 -0.699000       2.39900    
      4835 BUTA     86       BUTA     DO1      DRUD     -1.45090      0.400000           0   0.00000       0.00000    
      4836 BUTA     86       BUTA     O2       OD2C2A    1.45090       15.5994           0 -0.699000       2.39900    
      4837 BUTA     86       BUTA     DO2      DRUD     -1.45090      0.400000           0   0.00000       0.00000    
      4838 BUTA     86       BUTA     H1       HDA3A    0.900000E-01   1.00800           0   0.00000       0.00000    
      4839 BUTA     86       BUTA     H2       HDA3A    0.900000E-01   1.00800           0   0.00000       0.00000    
      4840 BUTA     86       BUTA     H3       HDA3A    0.900000E-01   1.00800           0   0.00000       0.00000    
      4841 BUTA     86       BUTA     H4       HDA2A    0.900000E-01   1.00800           0   0.00000       0.00000    
      4842 BUTA     86       BUTA     H5       HDA2A    0.900000E-01   1.00800           0   0.00000       0.00000    
      4843 BUTA     86       BUTA     H6       HDA2A    0.900000E-01   1.00800           0   0.00000       0.00000    
      4844 BUTA     86       BUTA     H7       HDA2A    0.900000E-01   1.00800           0   0.00000       0.00000    
      4845 BUTA     86       BUTA     H8       DUMH      0.00000       1.00800           0   0.00000       0.00000    
      4846 BUTA     86       BUTA     H9       DUMH      0.00000       1.00800           0   0.00000       0.00000    
      4847 BUTA     86       BUTA     LPO11    LPD     -0.380000       0.00000          -1   0.00000       0.00000    
      4848 BUTA     86       BUTA     LPO12    LPD     -0.380000       0.00000          -1   0.00000       0.00000    
      4849 BUTA     86       BUTA     LPO21    LPD     -0.380000       0.00000          -1   0.00000       0.00000    
      4850 BUTA     86       BUTA     LPO22    LPD     -0.380000       0.00000          -1   0.00000       0.00000    
      4851 BUTA     87       BUTA     C1       CD33A     2.06290       11.6110           0  -1.81190       1.18670    
      4852 BUTA     87       BUTA     DC1      DRUD     -2.33590      0.400000           0   0.00000       0.00000    
      4853 BUTA     87       BUTA     C2       CD32A     2.01970       11.6110           0  -1.59660       1.16930    
      4854 BUTA     87       BUTA     DC2      DRUD     -2.19270      0.400000           0   0.00000       0.00000    
      4855 BUTA     87       BUTA     C3       CD32A     1.90870       11.6110           0  -1.59660       1.16930    
      4856 BUTA     87       BUTA     DC3      DRUD     -2.19270      0.400000           0   0.00000       0.00000    
      4857 BUTA     87       BUTA     C4       CD2O2A    2.36920       11.6110           0  -1.01600      0.899000    
      4858 BUTA     87       BUTA     DC4      DRUD     -1.74920      0.400000           0   0.00000       0.00000    
      4859 BUTA     87       BUTA     O1       OD2C2A    1.45090       15.5994           0 -0.699000       2.39900    
      4860 BUTA     87       BUTA     DO1      DRUD     -1.45090      0.400000           0   0.00000       0.00000    
      4861 BUTA     87       BUTA     O2       OD2C2A    1.45090       15.5994           0 -0.699000       2.39900    
      4862 BUTA     87       BUTA     DO2      DRUD     -1.45090      0.400000           0   0.00000       0.00000    
      4863 BUTA     87       BUTA     H1       HDA3A    0.900000E-01   1.00800           0   0.00000       0.00000    
      4864 BUTA     87       BUTA     H2       HDA3A    0.900000E-01   1.00800           0   0.00000       0.00000    
      4865 BUTA     87       BUTA     H3       HDA3A    0.900000E-01   1.00800           0   0.00000       0.00000    
      4866 BUTA     87       BUTA     H4       HDA2A    0.900000E-01   1.00800           0   0.00000       0.00000    
      4867 BUTA     87       BUTA     H5       HDA2A    0.900000E-01   1.00800           0   0.00000       0.00000    
      4868 BUTA     87       BUTA     H6       HDA2A    0.900000E-01   1.00800           0   0.00000       0.00000    
      4869 BUTA     87       BUTA     H7       HDA2A    0.900000E-01   1.00800           0   0.00000       0.00000    
      4870 BUTA     87       BUTA     H8       DUMH      0.00000       1.00800           0   0.00000       0.00000    
      4871 BUTA     87       BUTA     H9       DUMH      0.00000       1.00800           0   0.00000       0.00000    
      4872 BUTA     87       BUTA     LPO11    LPD     -0.380000       0.00000          -1   0.00000       0.00000    
      4873 BUTA     87       BUTA     LPO12    LPD     -0.380000       0.00000          -1   0.00000       0.00000    
      4874 BUTA     87       BUTA     LPO21    LPD     -0.380000       0.00000          -1   0.00000       0.00000    
      4875 BUTA     87       BUTA     LPO22    LPD     -0.380000       0.00000          -1   0.00000       0.00000    
      4876 BUTA     88       BUTA     C1       CD33A     2.06290       11.6110           0  -1.81190       1.18670    
      4877 BUTA     88       BUTA     DC1      DRUD     -2.33590      0.400000           0   0.00000       0.00000    
      4878 BUTA     88       BUTA     C2       CD32A     2.01970       11.6110           0  -1.59660       1.16930    
      4879 BUTA     88       BUTA     DC2      DRUD     -2.19270      0.400000           0   0.00000       0.00000    
      4880 BUTA     88       BUTA     C3       CD32A     1.90870       11.6110           0  -1.59660       1.16930    
      4881 BUTA     88       BUTA     DC3      DRUD     -2.19270      0.400000           0   0.00000       0.00000    
      4882 BUTA     88       BUTA     C4       CD2O2A    2.36920       11.6110           0  -1.01600      0.899000    
      4883 BUTA     88       BUTA     DC4      DRUD     -1.74920      0.400000           0   0.00000       0.00000    
      4884 BUTA     88       BUTA     O1       OD2C2A    1.45090       15.5994           0 -0.699000       2.39900    
      4885 BUTA     88       BUTA     DO1      DRUD     -1.45090      0.400000           0   0.00000       0.00000    
      4886 BUTA     88       BUTA     O2       OD2C2A    1.45090       15.5994           0 -0.699000       2.39900    
      4887 BUTA     88       BUTA     DO2      DRUD     -1.45090      0.400000           0   0.00000       0.00000    
      4888 BUTA     88       BUTA     H1       HDA3A    0.900000E-01   1.00800           0   0.00000       0.00000    
      4889 BUTA     88       BUTA     H2       HDA3A    0.900000E-01   1.00800           0   0.00000       0.00000    
      4890 BUTA     88       BUTA     H3       HDA3A    0.900000E-01   1.00800           0   0.00000       0.00000    
      4891 BUTA     88       BUTA     H4       HDA2A    0.900000E-01   1.00800           0   0.00000       0.00000    
      4892 BUTA     88       BUTA     H5       HDA2A    0.900000E-01   1.00800           0   0.00000       0.00000    
      4893 BUTA     88       BUTA     H6       HDA2A    0.900000E-01   1.00800           0   0.00000       0.00000    
      4894 BUTA     88       BUTA     H7       HDA2A    0.900000E-01   1.00800           0   0.00000       0.00000    
      4895 BUTA     88       BUTA     H8       DUMH      0.00000       1.00800           0   0.00000       0.00000    
      4896 BUTA     88       BUTA     H9       DUMH      0.00000       1.00800           0   0.00000       0.00000    
      4897 BUTA     88       BUTA     LPO11    LPD     -0.380000       0.00000          -1   0.00000       0.00000    
      4898 BUTA     88       BUTA     LPO12    LPD     -0.380000       0.00000          -1   0.00000       0.00000    
      4899 BUTA     88       BUTA     LPO21    LPD     -0.380000       0.00000          -1   0.00000       0.00000    
      4900 BUTA     88       BUTA     LPO22    LPD     -0.380000       0.00000          -1   0.00000       0.00000    
      4901 BUTA     89       BUTA     C1       CD33A     2.06290       11.6110           0  -1.81190       1.18670    
      4902 BUTA     89       BUTA     DC1      DRUD     -2.33590      0.400000           0   0.00000       0.00000    
      4903 BUTA     89       BUTA     C2       CD32A     2.01970       11.6110           0  -1.59660       1.16930    
      4904 BUTA     89       BUTA     DC2      DRUD     -2.19270      0.400000           0   0.00000       0.00000    
      4905 BUTA     89       BUTA     C3       CD32A     1.90870       11.6110           0  -1.59660       1.16930    
      4906 BUTA     89       BUTA     DC3      DRUD     -2.19270      0.400000           0   0.00000       0.00000    
      4907 BUTA     89       BUTA     C4       CD2O2A    2.36920       11.6110           0  -1.01600      0.899000    
      4908 BUTA     89       BUTA     DC4      DRUD     -1.74920      0.400000           0   0.00000       0.00000    
      4909 BUTA     89       BUTA     O1       OD2C2A    1.45090       15.5994           0 -0.699000       2.39900    
      4910 BUTA     89       BUTA     DO1      DRUD     -1.45090      0.400000           0   0.00000       0.00000    
      4911 BUTA     89       BUTA     O2       OD2C2A    1.45090       15.5994           0 -0.699000       2.39900    
      4912 BUTA     89       BUTA     DO2      DRUD     -1.45090      0.400000           0   0.00000       0.00000    
      4913 BUTA     89       BUTA     H1       HDA3A    0.900000E-01   1.00800           0   0.00000       0.00000    
      4914 BUTA     89       BUTA     H2       HDA3A    0.900000E-01   1.00800           0   0.00000       0.00000    
      4915 BUTA     89       BUTA     H3       HDA3A    0.900000E-01   1.00800           0   0.00000       0.00000    
      4916 BUTA     89       BUTA     H4       HDA2A    0.900000E-01   1.00800           0   0.00000       0.00000    
      4917 BUTA     89       BUTA     H5       HDA2A    0.900000E-01   1.00800           0   0.00000       0.00000    
      4918 BUTA     89       BUTA     H6       HDA2A    0.900000E-01   1.00800           0   0.00000       0.00000    
      4919 BUTA     89       BUTA     H7       HDA2A    0.900000E-01   1.00800           0   0.00000       0.00000    
      4920 BUTA     89       BUTA     H8       DUMH      0.00000       1.00800           0   0.00000       0.00000    
      4921 BUTA     89       BUTA     H9       DUMH      0.00000       1.00800           0   0.00000       0.00000    
      4922 BUTA     89       BUTA     LPO11    LPD     -0.380000       0.00000          -1   0.00000       0.00000    
      4923 BUTA     89       BUTA     LPO12    LPD     -0.380000       0.00000          -1   0.00000       0.00000    
      4924 BUTA     89       BUTA     LPO21    LPD     -0.380000       0.00000          -1   0.00000       0.00000    
      4925 BUTA     89       BUTA     LPO22    LPD     -0.380000       0.00000          -1   0.00000       0.00000    
      4926 BUTA     90       BUTA     C1       CD33A     2.06290       11.6110           0  -1.81190       1.18670    
      4927 BUTA     90       BUTA     DC1      DRUD     -2.33590      0.400000           0   0.00000       0.00000    
      4928 BUTA     90       BUTA     C2       CD32A     2.01970       11.6110           0  -1.59660       1.16930    
      4929 BUTA     90       BUTA     DC2      DRUD     -2.19270      0.400000           0   0.00000       0.00000    
      4930 BUTA     90       BUTA     C3       CD32A     1.90870       11.6110           0  -1.59660       1.16930    
      4931 BUTA     90       BUTA     DC3      DRUD     -2.19270      0.400000           0   0.00000       0.00000    
      4932 BUTA     90       BUTA     C4       CD2O2A    2.36920       11.6110           0  -1.01600      0.899000    
      4933 BUTA     90       BUTA     DC4      DRUD     -1.74920      0.400000           0   0.00000       0.00000    
      4934 BUTA     90       BUTA     O1       OD2C2A    1.45090       15.5994           0 -0.699000       2.39900    
      4935 BUTA     90       BUTA     DO1      DRUD     -1.45090      0.400000           0   0.00000       0.00000    
      4936 BUTA     90       BUTA     O2       OD2C2A    1.45090       15.5994           0 -0.699000       2.39900    
      4937 BUTA     90       BUTA     DO2      DRUD     -1.45090      0.400000           0   0.00000       0.00000    
      4938 BUTA     90       BUTA     H1       HDA3A    0.900000E-01   1.00800           0   0.00000       0.00000    
      4939 BUTA     90       BUTA     H2       HDA3A    0.900000E-01   1.00800           0   0.00000       0.00000    
      4940 BUTA     90       BUTA     H3       HDA3A    0.900000E-01   1.00800           0   0.00000       0.00000    
      4941 BUTA     90       BUTA     H4       HDA2A    0.900000E-01   1.00800           0   0.00000       0.00000    
      4942 BUTA     90       BUTA     H5       HDA2A    0.900000E-01   1.00800           0   0.00000       0.00000    
      4943 BUTA     90       BUTA     H6       HDA2A    0.900000E-01   1.00800           0   0.00000       0.00000    
      4944 BUTA     90       BUTA     H7       HDA2A    0.900000E-01   1.00800           0   0.00000       0.00000    
      4945 BUTA     90       BUTA     H8       DUMH      0.00000       1.00800           0   0.00000       0.00000    
      4946 BUTA     90       BUTA     H9       DUMH      0.00000       1.00800           0   0.00000       0.00000    
      4947 BUTA     90       BUTA     LPO11    LPD     -0.380000       0.00000          -1   0.00000       0.00000    
      4948 BUTA     90       BUTA     LPO12    LPD     -0.380000       0.00000          -1   0.00000       0.00000    
      4949 BUTA     90       BUTA     LPO21    LPD     -0.380000       0.00000          -1   0.00000       0.00000    
      4950 BUTA     90       BUTA     LPO22    LPD     -0.380000       0.00000          -1   0.00000       0.00000    
      4951 BUTA     91       BUTA     C1       CD33A     2.06290       11.6110           0  -1.81190       1.18670    
      4952 BUTA     91       BUTA     DC1      DRUD     -2.33590      0.400000           0   0.00000       0.00000    
      4953 BUTA     91       BUTA     C2       CD32A     2.01970       11.6110           0  -1.59660       1.16930    
      4954 BUTA     91       BUTA     DC2      DRUD     -2.19270      0.400000           0   0.00000       0.00000    
      4955 BUTA     91       BUTA     C3       CD32A     1.90870       11.6110           0  -1.59660       1.16930    
      4956 BUTA     91       BUTA     DC3      DRUD     -2.19270      0.400000           0   0.00000       0.00000    
      4957 BUTA     91       BUTA     C4       CD2O2A    2.36920       11.6110           0  -1.01600      0.899000    
      4958 BUTA     91       BUTA     DC4      DRUD     -1.74920      0.400000           0   0.00000       0.00000    
      4959 BUTA     91       BUTA     O1       OD2C2A    1.45090       15.5994           0 -0.699000       2.39900    
      4960 BUTA     91       BUTA     DO1      DRUD     -1.45090      0.400000           0   0.00000       0.00000    
      4961 BUTA     91       BUTA     O2       OD2C2A    1.45090       15.5994           0 -0.699000       2.39900    
      4962 BUTA     91       BUTA     DO2      DRUD     -1.45090      0.400000           0   0.00000       0.00000    
      4963 BUTA     91       BUTA     H1       HDA3A    0.900000E-01   1.00800           0   0.00000       0.00000    
      4964 BUTA     91       BUTA     H2       HDA3A    0.900000E-01   1.00800           0   0.00000       0.00000    
      4965 BUTA     91       BUTA     H3       HDA3A    0.900000E-01   1.00800           0   0.00000       0.00000    
      4966 BUTA     91       BUTA     H4       HDA2A    0.900000E-01   1.00800           0   0.00000       0.00000    
      4967 BUTA     91       BUTA     H5       HDA2A    0.900000E-01   1.00800           0   0.00000       0.00000    
      4968 BUTA     91       BUTA     H6       HDA2A    0.900000E-01   1.00800           0   0.00000       0.00000    
      4969 BUTA     91       BUTA     H7       HDA2A    0.900000E-01   1.00800           0   0.00000       0.00000    
      4970 BUTA     91       BUTA     H8       DUMH      0.00000       1.00800           0   0.00000       0.00000    
      4971 BUTA     91       BUTA     H9       DUMH      0.00000       1.00800           0   0.00000       0.00000    
      4972 BUTA     91       BUTA     LPO11    LPD     -0.380000       0.00000          -1   0.00000       0.00000    
      4973 BUTA     91       BUTA     LPO12    LPD     -0.380000       0.00000          -1   0.00000       0.00000    
      4974 BUTA     91       BUTA     LPO21    LPD     -0.380000       0.00000          -1   0.00000       0.00000    
      4975 BUTA     91       BUTA     LPO22    LPD     -0.380000       0.00000          -1   0.00000       0.00000    
      4976 BUTA     92       BUTA     C1       CD33A     2.06290       11.6110           0  -1.81190       1.18670    
      4977 BUTA     92       BUTA     DC1      DRUD     -2.33590      0.400000           0   0.00000       0.00000    
      4978 BUTA     92       BUTA     C2       CD32A     2.01970       11.6110           0  -1.59660       1.16930    
      4979 BUTA     92       BUTA     DC2      DRUD     -2.19270      0.400000           0   0.00000       0.00000    
      4980 BUTA     92       BUTA     C3       CD32A     1.90870       11.6110           0  -1.59660       1.16930    
      4981 BUTA     92       BUTA     DC3      DRUD     -2.19270      0.400000           0   0.00000       0.00000    
      4982 BUTA     92       BUTA     C4       CD2O2A    2.36920       11.6110           0  -1.01600      0.899000    
      4983 BUTA     92       BUTA     DC4      DRUD     -1.74920      0.400000           0   0.00000       0.00000    
      4984 BUTA     92       BUTA     O1       OD2C2A    1.45090       15.5994           0 -0.699000       2.39900    
      4985 BUTA     92       BUTA     DO1      DRUD     -1.45090      0.400000           0   0.00000       0.00000    
      4986 BUTA     92       BUTA     O2       OD2C2A    1.45090       15.5994           0 -0.699000       2.39900    
      4987 BUTA     92       BUTA     DO2      DRUD     -1.45090      0.400000           0   0.00000       0.00000    
      4988 BUTA     92       BUTA     H1       HDA3A    0.900000E-01   1.00800           0   0.00000       0.00000    
      4989 BUTA     92       BUTA     H2       HDA3A    0.900000E-01   1.00800           0   0.00000       0.00000    
      4990 BUTA     92       BUTA     H3       HDA3A    0.900000E-01   1.00800           0   0.00000       0.00000    
      4991 BUTA     92       BUTA     H4       HDA2A    0.900000E-01   1.00800           0   0.00000       0.00000    
      4992 BUTA     92       BUTA     H5       HDA2A    0.900000E-01   1.00800           0   0.00000       0.00000    
      4993 BUTA     92       BUTA     H6       HDA2A    0.900000E-01   1.00800           0   0.00000       0.00000    
      4994 BUTA     92       BUTA     H7       HDA2A    0.900000E-01   1.00800           0   0.00000       0.00000    
      4995 BUTA     92       BUTA     H8       DUMH      0.00000       1.00800           0   0.00000       0.00000    
      4996 BUTA     92       BUTA     H9       DUMH      0.00000       1.00800           0   0.00000       0.00000    
      4997 BUTA     92       BUTA     LPO11    LPD     -0.380000       0.00000          -1   0.00000       0.00000    
      4998 BUTA     92       BUTA     LPO12    LPD     -0.380000       0.00000          -1   0.00000       0.00000    
      4999 BUTA     92       BUTA     LPO21    LPD     -0.380000       0.00000          -1   0.00000       0.00000    
      5000 BUTA     92       BUTA     LPO22    LPD     -0.380000       0.00000          -1   0.00000       0.00000    
      5001 BUTA     93       BUTA     C1       CD33A     2.06290       11.6110           0  -1.81190       1.18670    
      5002 BUTA     93       BUTA     DC1      DRUD     -2.33590      0.400000           0   0.00000       0.00000    
      5003 BUTA     93       BUTA     C2       CD32A     2.01970       11.6110           0  -1.59660       1.16930    
      5004 BUTA     93       BUTA     DC2      DRUD     -2.19270      0.400000           0   0.00000       0.00000    
      5005 BUTA     93       BUTA     C3       CD32A     1.90870       11.6110           0  -1.59660       1.16930    
      5006 BUTA     93       BUTA     DC3      DRUD     -2.19270      0.400000           0   0.00000       0.00000    
      5007 BUTA     93       BUTA     C4       CD2O2A    2.36920       11.6110           0  -1.01600      0.899000    
      5008 BUTA     93       BUTA     DC4      DRUD     -1.74920      0.400000           0   0.00000       0.00000    
      5009 BUTA     93       BUTA     O1       OD2C2A    1.45090       15.5994           0 -0.699000       2.39900    
      5010 BUTA     93       BUTA     DO1      DRUD     -1.45090      0.400000           0   0.00000       0.00000    
      5011 BUTA     93       BUTA     O2       OD2C2A    1.45090       15.5994           0 -0.699000       2.39900    
      5012 BUTA     93       BUTA     DO2      DRUD     -1.45090      0.400000           0   0.00000       0.00000    
      5013 BUTA     93       BUTA     H1       HDA3A    0.900000E-01   1.00800           0   0.00000       0.00000    
      5014 BUTA     93       BUTA     H2       HDA3A    0.900000E-01   1.00800           0   0.00000       0.00000    
      5015 BUTA     93       BUTA     H3       HDA3A    0.900000E-01   1.00800           0   0.00000       0.00000    
      5016 BUTA     93       BUTA     H4       HDA2A    0.900000E-01   1.00800           0   0.00000       0.00000    
      5017 BUTA     93       BUTA     H5       HDA2A    0.900000E-01   1.00800           0   0.00000       0.00000    
      5018 BUTA     93       BUTA     H6       HDA2A    0.900000E-01   1.00800           0   0.00000       0.00000    
      5019 BUTA     93       BUTA     H7       HDA2A    0.900000E-01   1.00800           0   0.00000       0.00000    
      5020 BUTA     93       BUTA     H8       DUMH      0.00000       1.00800           0   0.00000       0.00000    
      5021 BUTA     93       BUTA     H9       DUMH      0.00000       1.00800           0   0.00000       0.00000    
      5022 BUTA     93       BUTA     LPO11    LPD     -0.380000       0.00000          -1   0.00000       0.00000    
      5023 BUTA     93       BUTA     LPO12    LPD     -0.380000       0.00000          -1   0.00000       0.00000    
      5024 BUTA     93       BUTA     LPO21    LPD     -0.380000       0.00000          -1   0.00000       0.00000    
      5025 BUTA     93       BUTA     LPO22    LPD     -0.380000       0.00000          -1   0.00000       0.00000    
      5026 BUTA     94       BUTA     C1       CD33A     2.06290       11.6110           0  -1.81190       1.18670    
      5027 BUTA     94       BUTA     DC1      DRUD     -2.33590      0.400000           0   0.00000       0.00000    
      5028 BUTA     94       BUTA     C2       CD32A     2.01970       11.6110           0  -1.59660       1.16930    
      5029 BUTA     94       BUTA     DC2      DRUD     -2.19270      0.400000           0   0.00000       0.00000    
      5030 BUTA     94       BUTA     C3       CD32A     1.90870       11.6110           0  -1.59660       1.16930    
      5031 BUTA     94       BUTA     DC3      DRUD     -2.19270      0.400000           0   0.00000       0.00000    
      5032 BUTA     94       BUTA     C4       CD2O2A    2.36920       11.6110           0  -1.01600      0.899000    
      5033 BUTA     94       BUTA     DC4      DRUD     -1.74920      0.400000           0   0.00000       0.00000    
      5034 BUTA     94       BUTA     O1       OD2C2A    1.45090       15.5994           0 -0.699000       2.39900    
      5035 BUTA     94       BUTA     DO1      DRUD     -1.45090      0.400000           0   0.00000       0.00000    
      5036 BUTA     94       BUTA     O2       OD2C2A    1.45090       15.5994           0 -0.699000       2.39900    
      5037 BUTA     94       BUTA     DO2      DRUD     -1.45090      0.400000           0   0.00000       0.00000    
      5038 BUTA     94       BUTA     H1       HDA3A    0.900000E-01   1.00800           0   0.00000       0.00000    
      5039 BUTA     94       BUTA     H2       HDA3A    0.900000E-01   1.00800           0   0.00000       0.00000    
      5040 BUTA     94       BUTA     H3       HDA3A    0.900000E-01   1.00800           0   0.00000       0.00000    
      5041 BUTA     94       BUTA     H4       HDA2A    0.900000E-01   1.00800           0   0.00000       0.00000    
      5042 BUTA     94       BUTA     H5       HDA2A    0.900000E-01   1.00800           0   0.00000       0.00000    
      5043 BUTA     94       BUTA     H6       HDA2A    0.900000E-01   1.00800           0   0.00000       0.00000    
      5044 BUTA     94       BUTA     H7       HDA2A    0.900000E-01   1.00800           0   0.00000       0.00000    
      5045 BUTA     94       BUTA     H8       DUMH      0.00000       1.00800           0   0.00000       0.00000    
      5046 BUTA     94       BUTA     H9       DUMH      0.00000       1.00800           0   0.00000       0.00000    
      5047 BUTA     94       BUTA     LPO11    LPD     -0.380000       0.00000          -1   0.00000       0.00000    
      5048 BUTA     94       BUTA     LPO12    LPD     -0.380000       0.00000          -1   0.00000       0.00000    
      5049 BUTA     94       BUTA     LPO21    LPD     -0.380000       0.00000          -1   0.00000       0.00000    
      5050 BUTA     94       BUTA     LPO22    LPD     -0.380000       0.00000          -1   0.00000       0.00000    
      5051 BUTA     95       BUTA     C1       CD33A     2.06290       11.6110           0  -1.81190       1.18670    
      5052 BUTA     95       BUTA     DC1      DRUD     -2.33590      0.400000           0   0.00000       0.00000    
      5053 BUTA     95       BUTA     C2       CD32A     2.01970       11.6110           0  -1.59660       1.16930    
      5054 BUTA     95       BUTA     DC2      DRUD     -2.19270      0.400000           0   0.00000       0.00000    
      5055 BUTA     95       BUTA     C3       CD32A     1.90870       11.6110           0  -1.59660       1.16930    
      5056 BUTA     95       BUTA     DC3      DRUD     -2.19270      0.400000           0   0.00000       0.00000    
      5057 BUTA     95       BUTA     C4       CD2O2A    2.36920       11.6110           0  -1.01600      0.899000    
      5058 BUTA     95       BUTA     DC4      DRUD     -1.74920      0.400000           0   0.00000       0.00000    
      5059 BUTA     95       BUTA     O1       OD2C2A    1.45090       15.5994           0 -0.699000       2.39900    
      5060 BUTA     95       BUTA     DO1      DRUD     -1.45090      0.400000           0   0.00000       0.00000    
      5061 BUTA     95       BUTA     O2       OD2C2A    1.45090       15.5994           0 -0.699000       2.39900    
      5062 BUTA     95       BUTA     DO2      DRUD     -1.45090      0.400000           0   0.00000       0.00000    
      5063 BUTA     95       BUTA     H1       HDA3A    0.900000E-01   1.00800           0   0.00000       0.00000    
      5064 BUTA     95       BUTA     H2       HDA3A    0.900000E-01   1.00800           0   0.00000       0.00000    
      5065 BUTA     95       BUTA     H3       HDA3A    0.900000E-01   1.00800           0   0.00000       0.00000    
      5066 BUTA     95       BUTA     H4       HDA2A    0.900000E-01   1.00800           0   0.00000       0.00000    
      5067 BUTA     95       BUTA     H5       HDA2A    0.900000E-01   1.00800           0   0.00000       0.00000    
      5068 BUTA     95       BUTA     H6       HDA2A    0.900000E-01   1.00800           0   0.00000       0.00000    
      5069 BUTA     95       BUTA     H7       HDA2A    0.900000E-01   1.00800           0   0.00000       0.00000    
      5070 BUTA     95       BUTA     H8       DUMH      0.00000       1.00800           0   0.00000       0.00000    
      5071 BUTA     95       BUTA     H9       DUMH      0.00000       1.00800           0   0.00000       0.00000    
      5072 BUTA     95       BUTA     LPO11    LPD     -0.380000       0.00000          -1   0.00000       0.00000    
      5073 BUTA     95       BUTA     LPO12    LPD     -0.380000       0.00000          -1   0.00000       0.00000    
      5074 BUTA     95       BUTA     LPO21    LPD     -0.380000       0.00000          -1   0.00000       0.00000    
      5075 BUTA     95       BUTA     LPO22    LPD     -0.380000       0.00000          -1   0.00000       0.00000    
      5076 BUTA     96       BUTA     C1       CD33A     2.06290       11.6110           0  -1.81190       1.18670    
      5077 BUTA     96       BUTA     DC1      DRUD     -2.33590      0.400000           0   0.00000       0.00000    
      5078 BUTA     96       BUTA     C2       CD32A     2.01970       11.6110           0  -1.59660       1.16930    
      5079 BUTA     96       BUTA     DC2      DRUD     -2.19270      0.400000           0   0.00000       0.00000    
      5080 BUTA     96       BUTA     C3       CD32A     1.90870       11.6110           0  -1.59660       1.16930    
      5081 BUTA     96       BUTA     DC3      DRUD     -2.19270      0.400000           0   0.00000       0.00000    
      5082 BUTA     96       BUTA     C4       CD2O2A    2.36920       11.6110           0  -1.01600      0.899000    
      5083 BUTA     96       BUTA     DC4      DRUD     -1.74920      0.400000           0   0.00000       0.00000    
      5084 BUTA     96       BUTA     O1       OD2C2A    1.45090       15.5994           0 -0.699000       2.39900    
      5085 BUTA     96       BUTA     DO1      DRUD     -1.45090      0.400000           0   0.00000       0.00000    
      5086 BUTA     96       BUTA     O2       OD2C2A    1.45090       15.5994           0 -0.699000       2.39900    
      5087 BUTA     96       BUTA     DO2      DRUD     -1.45090      0.400000           0   0.00000       0.00000    
      5088 BUTA     96       BUTA     H1       HDA3A    0.900000E-01   1.00800           0   0.00000       0.00000    
      5089 BUTA     96       BUTA     H2       HDA3A    0.900000E-01   1.00800           0   0.00000       0.00000    
      5090 BUTA     96       BUTA     H3       HDA3A    0.900000E-01   1.00800           0   0.00000       0.00000    
      5091 BUTA     96       BUTA     H4       HDA2A    0.900000E-01   1.00800           0   0.00000       0.00000    
      5092 BUTA     96       BUTA     H5       HDA2A    0.900000E-01   1.00800           0   0.00000       0.00000    
      5093 BUTA     96       BUTA     H6       HDA2A    0.900000E-01   1.00800           0   0.00000       0.00000    
      5094 BUTA     96       BUTA     H7       HDA2A    0.900000E-01   1.00800           0   0.00000       0.00000    
      5095 BUTA     96       BUTA     H8       DUMH      0.00000       1.00800           0   0.00000       0.00000    
      5096 BUTA     96       BUTA     H9       DUMH      0.00000       1.00800           0   0.00000       0.00000    
      5097 BUTA     96       BUTA     LPO11    LPD     -0.380000       0.00000          -1   0.00000       0.00000    
      5098 BUTA     96       BUTA     LPO12    LPD     -0.380000       0.00000          -1   0.00000       0.00000    
      5099 BUTA     96       BUTA     LPO21    LPD     -0.380000       0.00000          -1   0.00000       0.00000    
      5100 BUTA     96       BUTA     LPO22    LPD     -0.380000       0.00000          -1   0.00000       0.00000    
      5101 BUTA     97       BUTA     C1       CD33A     2.06290       11.6110           0  -1.81190       1.18670    
      5102 BUTA     97       BUTA     DC1      DRUD     -2.33590      0.400000           0   0.00000       0.00000    
      5103 BUTA     97       BUTA     C2       CD32A     2.01970       11.6110           0  -1.59660       1.16930    
      5104 BUTA     97       BUTA     DC2      DRUD     -2.19270      0.400000           0   0.00000       0.00000    
      5105 BUTA     97       BUTA     C3       CD32A     1.90870       11.6110           0  -1.59660       1.16930    
      5106 BUTA     97       BUTA     DC3      DRUD     -2.19270      0.400000           0   0.00000       0.00000    
      5107 BUTA     97       BUTA     C4       CD2O2A    2.36920       11.6110           0  -1.01600      0.899000    
      5108 BUTA     97       BUTA     DC4      DRUD     -1.74920      0.400000           0   0.00000       0.00000    
      5109 BUTA     97       BUTA     O1       OD2C2A    1.45090       15.5994           0 -0.699000       2.39900    
      5110 BUTA     97       BUTA     DO1      DRUD     -1.45090      0.400000           0   0.00000       0.00000    
      5111 BUTA     97       BUTA     O2       OD2C2A    1.45090       15.5994           0 -0.699000       2.39900    
      5112 BUTA     97       BUTA     DO2      DRUD     -1.45090      0.400000           0   0.00000       0.00000    
      5113 BUTA     97       BUTA     H1       HDA3A    0.900000E-01   1.00800           0   0.00000       0.00000    
      5114 BUTA     97       BUTA     H2       HDA3A    0.900000E-01   1.00800           0   0.00000       0.00000    
      5115 BUTA     97       BUTA     H3       HDA3A    0.900000E-01   1.00800           0   0.00000       0.00000    
      5116 BUTA     97       BUTA     H4       HDA2A    0.900000E-01   1.00800           0   0.00000       0.00000    
      5117 BUTA     97       BUTA     H5       HDA2A    0.900000E-01   1.00800           0   0.00000       0.00000    
      5118 BUTA     97       BUTA     H6       HDA2A    0.900000E-01   1.00800           0   0.00000       0.00000    
      5119 BUTA     97       BUTA     H7       HDA2A    0.900000E-01   1.00800           0   0.00000       0.00000    
      5120 BUTA     97       BUTA     H8       DUMH      0.00000       1.00800           0   0.00000       0.00000    
      5121 BUTA     97       BUTA     H9       DUMH      0.00000       1.00800           0   0.00000       0.00000    
      5122 BUTA     97       BUTA     LPO11    LPD     -0.380000       0.00000          -1   0.00000       0.00000    
      5123 BUTA     97       BUTA     LPO12    LPD     -0.380000       0.00000          -1   0.00000       0.00000    
      5124 BUTA     97       BUTA     LPO21    LPD     -0.380000       0.00000          -1   0.00000       0.00000    
      5125 BUTA     97       BUTA     LPO22    LPD     -0.380000       0.00000          -1   0.00000       0.00000    
      5126 BUTA     98       BUTA     C1       CD33A     2.06290       11.6110           0  -1.81190       1.18670    
      5127 BUTA     98       BUTA     DC1      DRUD     -2.33590      0.400000           0   0.00000       0.00000    
      5128 BUTA     98       BUTA     C2       CD32A     2.01970       11.6110           0  -1.59660       1.16930    
      5129 BUTA     98       BUTA     DC2      DRUD     -2.19270      0.400000           0   0.00000       0.00000    
      5130 BUTA     98       BUTA     C3       CD32A     1.90870       11.6110           0  -1.59660       1.16930    
      5131 BUTA     98       BUTA     DC3      DRUD     -2.19270      0.400000           0   0.00000       0.00000    
      5132 BUTA     98       BUTA     C4       CD2O2A    2.36920       11.6110           0  -1.01600      0.899000    
      5133 BUTA     98       BUTA     DC4      DRUD     -1.74920      0.400000           0   0.00000       0.00000    
      5134 BUTA     98       BUTA     O1       OD2C2A    1.45090       15.5994           0 -0.699000       2.39900    
      5135 BUTA     98       BUTA     DO1      DRUD     -1.45090      0.400000           0   0.00000       0.00000    
      5136 BUTA     98       BUTA     O2       OD2C2A    1.45090       15.5994           0 -0.699000       2.39900    
      5137 BUTA     98       BUTA     DO2      DRUD     -1.45090      0.400000           0   0.00000       0.00000    
      5138 BUTA     98       BUTA     H1       HDA3A    0.900000E-01   1.00800           0   0.00000       0.00000    
      5139 BUTA     98       BUTA     H2       HDA3A    0.900000E-01   1.00800           0   0.00000       0.00000    
      5140 BUTA     98       BUTA     H3       HDA3A    0.900000E-01   1.00800           0   0.00000       0.00000    
      5141 BUTA     98       BUTA     H4       HDA2A    0.900000E-01   1.00800           0   0.00000       0.00000    
      5142 BUTA     98       BUTA     H5       HDA2A    0.900000E-01   1.00800           0   0.00000       0.00000    
      5143 BUTA     98       BUTA     H6       HDA2A    0.900000E-01   1.00800           0   0.00000       0.00000    
      5144 BUTA     98       BUTA     H7       HDA2A    0.900000E-01   1.00800           0   0.00000       0.00000    
      5145 BUTA     98       BUTA     H8       DUMH      0.00000       1.00800           0   0.00000       0.00000    
      5146 BUTA     98       BUTA     H9       DUMH      0.00000       1.00800           0   0.00000       0.00000    
      5147 BUTA     98       BUTA     LPO11    LPD     -0.380000       0.00000          -1   0.00000       0.00000    
      5148 BUTA     98       BUTA     LPO12    LPD     -0.380000       0.00000          -1   0.00000       0.00000    
      5149 BUTA     98       BUTA     LPO21    LPD     -0.380000       0.00000          -1   0.00000       0.00000    
      5150 BUTA     98       BUTA     LPO22    LPD     -0.380000       0.00000          -1   0.00000       0.00000    
      5151 BUTA     99       BUTA     C1       CD33A     2.06290       11.6110           0  -1.81190       1.18670    
      5152 BUTA     99       BUTA     DC1      DRUD     -2.33590      0.400000           0   0.00000       0.00000    
      5153 BUTA     99       BUTA     C2       CD32A     2.01970       11.6110           0  -1.59660       1.16930    
      5154 BUTA     99       BUTA     DC2      DRUD     -2.19270      0.400000           0   0.00000       0.00000    
      5155 BUTA     99       BUTA     C3       CD32A     1.90870       11.6110           0  -1.59660       1.16930    
      5156 BUTA     99       BUTA     DC3      DRUD     -2.19270      0.400000           0   0.00000       0.00000    
      5157 BUTA     99       BUTA     C4       CD2O2A    2.36920       11.6110           0  -1.01600      0.899000    
      5158 BUTA     99       BUTA     DC4      DRUD     -1.74920      0.400000           0   0.00000       0.00000    
      5159 BUTA     99       BUTA     O1       OD2C2A    1.45090       15.5994           0 -0.699000       2.39900    
      5160 BUTA     99       BUTA     DO1      DRUD     -1.45090      0.400000           0   0.00000       0.00000    
      5161 BUTA     99       BUTA     O2       OD2C2A    1.45090       15.5994           0 -0.699000       2.39900    
      5162 BUTA     99       BUTA     DO2      DRUD     -1.45090      0.400000           0   0.00000       0.00000    
      5163 BUTA     99       BUTA     H1       HDA3A    0.900000E-01   1.00800           0   0.00000       0.00000    
      5164 BUTA     99       BUTA     H2       HDA3A    0.900000E-01   1.00800           0   0.00000       0.00000    
      5165 BUTA     99       BUTA     H3       HDA3A    0.900000E-01   1.00800           0   0.00000       0.00000    
      5166 BUTA     99       BUTA     H4       HDA2A    0.900000E-01   1.00800           0   0.00000       0.00000    
      5167 BUTA     99       BUTA     H5       HDA2A    0.900000E-01   1.00800           0   0.00000       0.00000    
      5168 BUTA     99       BUTA     H6       HDA2A    0.900000E-01   1.00800           0   0.00000       0.00000    
      5169 BUTA     99       BUTA     H7       HDA2A    0.900000E-01   1.00800           0   0.00000       0.00000    
      5170 BUTA     99       BUTA     H8       DUMH      0.00000       1.00800           0   0.00000       0.00000    
      5171 BUTA     99       BUTA     H9       DUMH      0.00000       1.00800           0   0.00000       0.00000    
      5172 BUTA     99       BUTA     LPO11    LPD     -0.380000       0.00000          -1   0.00000       0.00000    
      5173 BUTA     99       BUTA     LPO12    LPD     -0.380000       0.00000          -1   0.00000       0.00000    
      5174 BUTA     99       BUTA     LPO21    LPD     -0.380000       0.00000          -1   0.00000       0.00000    
      5175 BUTA     99       BUTA     LPO22    LPD     -0.380000       0.00000          -1   0.00000       0.00000    
      5176 BUTA     100      BUTA     C1       CD33A     2.06290       11.6110           0  -1.81190       1.18670    
      5177 BUTA     100      BUTA     DC1      DRUD     -2.33590      0.400000           0   0.00000       0.00000    
      5178 BUTA     100      BUTA     C2       CD32A     2.01970       11.6110           0  -1.59660       1.16930    
      5179 BUTA     100      BUTA     DC2      DRUD     -2.19270      0.400000           0   0.00000       0.00000    
      5180 BUTA     100      BUTA     C3       CD32A     1.90870       11.6110           0  -1.59660       1.16930    
      5181 BUTA     100      BUTA     DC3      DRUD     -2.19270      0.400000           0   0.00000       0.00000    
      5182 BUTA     100      BUTA     C4       CD2O2A    2.36920       11.6110           0  -1.01600      0.899000    
      5183 BUTA     100      BUTA     DC4      DRUD     -1.74920      0.400000           0   0.00000       0.00000    
      5184 BUTA     100      BUTA     O1       OD2C2A    1.45090       15.5994           0 -0.699000       2.39900    
      5185 BUTA     100      BUTA     DO1      DRUD     -1.45090      0.400000           0   0.00000       0.00000    
      5186 BUTA     100      BUTA     O2       OD2C2A    1.45090       15.5994           0 -0.699000       2.39900    
      5187 BUTA     100      BUTA     DO2      DRUD     -1.45090      0.400000           0   0.00000       0.00000    
      5188 BUTA     100      BUTA     H1       HDA3A    0.900000E-01   1.00800           0   0.00000       0.00000    
      5189 BUTA     100      BUTA     H2       HDA3A    0.900000E-01   1.00800           0   0.00000       0.00000    
      5190 BUTA     100      BUTA     H3       HDA3A    0.900000E-01   1.00800           0   0.00000       0.00000    
      5191 BUTA     100      BUTA     H4       HDA2A    0.900000E-01   1.00800           0   0.00000       0.00000    
      5192 BUTA     100      BUTA     H5       HDA2A    0.900000E-01   1.00800           0   0.00000       0.00000    
      5193 BUTA     100      BUTA     H6       HDA2A    0.900000E-01   1.00800           0   0.00000       0.00000    
      5194 BUTA     100      BUTA     H7       HDA2A    0.900000E-01   1.00800           0   0.00000       0.00000    
      5195 BUTA     100      BUTA     H8       DUMH      0.00000       1.00800           0   0.00000       0.00000    
      5196 BUTA     100      BUTA     H9       DUMH      0.00000       1.00800           0   0.00000       0.00000    
      5197 BUTA     100      BUTA     LPO11    LPD     -0.380000       0.00000          -1   0.00000       0.00000    
      5198 BUTA     100      BUTA     LPO12    LPD     -0.380000       0.00000          -1   0.00000       0.00000    
      5199 BUTA     100      BUTA     LPO21    LPD     -0.380000       0.00000          -1   0.00000       0.00000    
      5200 BUTA     100      BUTA     LPO22    LPD     -0.380000       0.00000          -1   0.00000       0.00000    
      5201 BUTA     101      BUTA     C1       CD33A     2.06290       11.6110           0  -1.81190       1.18670    
      5202 BUTA     101      BUTA     DC1      DRUD     -2.33590      0.400000           0   0.00000       0.00000    
      5203 BUTA     101      BUTA     C2       CD32A     2.01970       11.6110           0  -1.59660       1.16930    
      5204 BUTA     101      BUTA     DC2      DRUD     -2.19270      0.400000           0   0.00000       0.00000    
      5205 BUTA     101      BUTA     C3       CD32A     1.90870       11.6110           0  -1.59660       1.16930    
      5206 BUTA     101      BUTA     DC3      DRUD     -2.19270      0.400000           0   0.00000       0.00000    
      5207 BUTA     101      BUTA     C4       CD2O2A    2.36920       11.6110           0  -1.01600      0.899000    
      5208 BUTA     101      BUTA     DC4      DRUD     -1.74920      0.400000           0   0.00000       0.00000    
      5209 BUTA     101      BUTA     O1       OD2C2A    1.45090       15.5994           0 -0.699000       2.39900    
      5210 BUTA     101      BUTA     DO1      DRUD     -1.45090      0.400000           0   0.00000       0.00000    
      5211 BUTA     101      BUTA     O2       OD2C2A    1.45090       15.5994           0 -0.699000       2.39900    
      5212 BUTA     101      BUTA     DO2      DRUD     -1.45090      0.400000           0   0.00000       0.00000    
      5213 BUTA     101      BUTA     H1       HDA3A    0.900000E-01   1.00800           0   0.00000       0.00000    
      5214 BUTA     101      BUTA     H2       HDA3A    0.900000E-01   1.00800           0   0.00000       0.00000    
      5215 BUTA     101      BUTA     H3       HDA3A    0.900000E-01   1.00800           0   0.00000       0.00000    
      5216 BUTA     101      BUTA     H4       HDA2A    0.900000E-01   1.00800           0   0.00000       0.00000    
      5217 BUTA     101      BUTA     H5       HDA2A    0.900000E-01   1.00800           0   0.00000       0.00000    
      5218 BUTA     101      BUTA     H6       HDA2A    0.900000E-01   1.00800           0   0.00000       0.00000    
      5219 BUTA     101      BUTA     H7       HDA2A    0.900000E-01   1.00800           0   0.00000       0.00000    
      5220 BUTA     101      BUTA     H8       DUMH      0.00000       1.00800           0   0.00000       0.00000    
      5221 BUTA     101      BUTA     H9       DUMH      0.00000       1.00800           0   0.00000       0.00000    
      5222 BUTA     101      BUTA     LPO11    LPD     -0.380000       0.00000          -1   0.00000       0.00000    
      5223 BUTA     101      BUTA     LPO12    LPD     -0.380000       0.00000          -1   0.00000       0.00000    
      5224 BUTA     101      BUTA     LPO21    LPD     -0.380000       0.00000          -1   0.00000       0.00000    
      5225 BUTA     101      BUTA     LPO22    LPD     -0.380000       0.00000          -1   0.00000       0.00000    
      5226 BUTA     102      BUTA     C1       CD33A     2.06290       11.6110           0  -1.81190       1.18670    
      5227 BUTA     102      BUTA     DC1      DRUD     -2.33590      0.400000           0   0.00000       0.00000    
      5228 BUTA     102      BUTA     C2       CD32A     2.01970       11.6110           0  -1.59660       1.16930    
      5229 BUTA     102      BUTA     DC2      DRUD     -2.19270      0.400000           0   0.00000       0.00000    
      5230 BUTA     102      BUTA     C3       CD32A     1.90870       11.6110           0  -1.59660       1.16930    
      5231 BUTA     102      BUTA     DC3      DRUD     -2.19270      0.400000           0   0.00000       0.00000    
      5232 BUTA     102      BUTA     C4       CD2O2A    2.36920       11.6110           0  -1.01600      0.899000    
      5233 BUTA     102      BUTA     DC4      DRUD     -1.74920      0.400000           0   0.00000       0.00000    
      5234 BUTA     102      BUTA     O1       OD2C2A    1.45090       15.5994           0 -0.699000       2.39900    
      5235 BUTA     102      BUTA     DO1      DRUD     -1.45090      0.400000           0   0.00000       0.00000    
      5236 BUTA     102      BUTA     O2       OD2C2A    1.45090       15.5994           0 -0.699000       2.39900    
      5237 BUTA     102      BUTA     DO2      DRUD     -1.45090      0.400000           0   0.00000       0.00000    
      5238 BUTA     102      BUTA     H1       HDA3A    0.900000E-01   1.00800           0   0.00000       0.00000    
      5239 BUTA     102      BUTA     H2       HDA3A    0.900000E-01   1.00800           0   0.00000       0.00000    
      5240 BUTA     102      BUTA     H3       HDA3A    0.900000E-01   1.00800           0   0.00000       0.00000    
      5241 BUTA     102      BUTA     H4       HDA2A    0.900000E-01   1.00800           0   0.00000       0.00000    
      5242 BUTA     102      BUTA     H5       HDA2A    0.900000E-01   1.00800           0   0.00000       0.00000    
      5243 BUTA     102      BUTA     H6       HDA2A    0.900000E-01   1.00800           0   0.00000       0.00000    
      5244 BUTA     102      BUTA     H7       HDA2A    0.900000E-01   1.00800           0   0.00000       0.00000    
      5245 BUTA     102      BUTA     H8       DUMH      0.00000       1.00800           0   0.00000       0.00000    
      5246 BUTA     102      BUTA     H9       DUMH      0.00000       1.00800           0   0.00000       0.00000    
      5247 BUTA     102      BUTA     LPO11    LPD     -0.380000       0.00000          -1   0.00000       0.00000    
      5248 BUTA     102      BUTA     LPO12    LPD     -0.380000       0.00000          -1   0.00000       0.00000    
      5249 BUTA     102      BUTA     LPO21    LPD     -0.380000       0.00000          -1   0.00000       0.00000    
      5250 BUTA     102      BUTA     LPO22    LPD     -0.380000       0.00000          -1   0.00000       0.00000    
      5251 BUTA     103      BUTA     C1       CD33A     2.06290       11.6110           0  -1.81190       1.18670    
      5252 BUTA     103      BUTA     DC1      DRUD     -2.33590      0.400000           0   0.00000       0.00000    
      5253 BUTA     103      BUTA     C2       CD32A     2.01970       11.6110           0  -1.59660       1.16930    
      5254 BUTA     103      BUTA     DC2      DRUD     -2.19270      0.400000           0   0.00000       0.00000    
      5255 BUTA     103      BUTA     C3       CD32A     1.90870       11.6110           0  -1.59660       1.16930    
      5256 BUTA     103      BUTA     DC3      DRUD     -2.19270      0.400000           0   0.00000       0.00000    
      5257 BUTA     103      BUTA     C4       CD2O2A    2.36920       11.6110           0  -1.01600      0.899000    
      5258 BUTA     103      BUTA     DC4      DRUD     -1.74920      0.400000           0   0.00000       0.00000    
      5259 BUTA     103      BUTA     O1       OD2C2A    1.45090       15.5994           0 -0.699000       2.39900    
      5260 BUTA     103      BUTA     DO1      DRUD     -1.45090      0.400000           0   0.00000       0.00000    
      5261 BUTA     103      BUTA     O2       OD2C2A    1.45090       15.5994           0 -0.699000       2.39900    
      5262 BUTA     103      BUTA     DO2      DRUD     -1.45090      0.400000           0   0.00000       0.00000    
      5263 BUTA     103      BUTA     H1       HDA3A    0.900000E-01   1.00800           0   0.00000       0.00000    
      5264 BUTA     103      BUTA     H2       HDA3A    0.900000E-01   1.00800           0   0.00000       0.00000    
      5265 BUTA     103      BUTA     H3       HDA3A    0.900000E-01   1.00800           0   0.00000       0.00000    
      5266 BUTA     103      BUTA     H4       HDA2A    0.900000E-01   1.00800           0   0.00000       0.00000    
      5267 BUTA     103      BUTA     H5       HDA2A    0.900000E-01   1.00800           0   0.00000       0.00000    
      5268 BUTA     103      BUTA     H6       HDA2A    0.900000E-01   1.00800           0   0.00000       0.00000    
      5269 BUTA     103      BUTA     H7       HDA2A    0.900000E-01   1.00800           0   0.00000       0.00000    
      5270 BUTA     103      BUTA     H8       DUMH      0.00000       1.00800           0   0.00000       0.00000    
      5271 BUTA     103      BUTA     H9       DUMH      0.00000       1.00800           0   0.00000       0.00000    
      5272 BUTA     103      BUTA     LPO11    LPD     -0.380000       0.00000          -1   0.00000       0.00000    
      5273 BUTA     103      BUTA     LPO12    LPD     -0.380000       0.00000          -1   0.00000       0.00000    
      5274 BUTA     103      BUTA     LPO21    LPD     -0.380000       0.00000          -1   0.00000       0.00000    
      5275 BUTA     103      BUTA     LPO22    LPD     -0.380000       0.00000          -1   0.00000       0.00000    
      5276 BUTA     104      BUTA     C1       CD33A     2.06290       11.6110           0  -1.81190       1.18670    
      5277 BUTA     104      BUTA     DC1      DRUD     -2.33590      0.400000           0   0.00000       0.00000    
      5278 BUTA     104      BUTA     C2       CD32A     2.01970       11.6110           0  -1.59660       1.16930    
      5279 BUTA     104      BUTA     DC2      DRUD     -2.19270      0.400000           0   0.00000       0.00000    
      5280 BUTA     104      BUTA     C3       CD32A     1.90870       11.6110           0  -1.59660       1.16930    
      5281 BUTA     104      BUTA     DC3      DRUD     -2.19270      0.400000           0   0.00000       0.00000    
      5282 BUTA     104      BUTA     C4       CD2O2A    2.36920       11.6110           0  -1.01600      0.899000    
      5283 BUTA     104      BUTA     DC4      DRUD     -1.74920      0.400000           0   0.00000       0.00000    
      5284 BUTA     104      BUTA     O1       OD2C2A    1.45090       15.5994           0 -0.699000       2.39900    
      5285 BUTA     104      BUTA     DO1      DRUD     -1.45090      0.400000           0   0.00000       0.00000    
      5286 BUTA     104      BUTA     O2       OD2C2A    1.45090       15.5994           0 -0.699000       2.39900    
      5287 BUTA     104      BUTA     DO2      DRUD     -1.45090      0.400000           0   0.00000       0.00000    
      5288 BUTA     104      BUTA     H1       HDA3A    0.900000E-01   1.00800           0   0.00000       0.00000    
      5289 BUTA     104      BUTA     H2       HDA3A    0.900000E-01   1.00800           0   0.00000       0.00000    
      5290 BUTA     104      BUTA     H3       HDA3A    0.900000E-01   1.00800           0   0.00000       0.00000    
      5291 BUTA     104      BUTA     H4       HDA2A    0.900000E-01   1.00800           0   0.00000       0.00000    
      5292 BUTA     104      BUTA     H5       HDA2A    0.900000E-01   1.00800           0   0.00000       0.00000    
      5293 BUTA     104      BUTA     H6       HDA2A    0.900000E-01   1.00800           0   0.00000       0.00000    
      5294 BUTA     104      BUTA     H7       HDA2A    0.900000E-01   1.00800           0   0.00000       0.00000    
      5295 BUTA     104      BUTA     H8       DUMH      0.00000       1.00800           0   0.00000       0.00000    
      5296 BUTA     104      BUTA     H9       DUMH      0.00000       1.00800           0   0.00000       0.00000    
      5297 BUTA     104      BUTA     LPO11    LPD     -0.380000       0.00000          -1   0.00000       0.00000    
      5298 BUTA     104      BUTA     LPO12    LPD     -0.380000       0.00000          -1   0.00000       0.00000    
      5299 BUTA     104      BUTA     LPO21    LPD     -0.380000       0.00000          -1   0.00000       0.00000    
      5300 BUTA     104      BUTA     LPO22    LPD     -0.380000       0.00000          -1   0.00000       0.00000    
      5301 BUTA     105      BUTA     C1       CD33A     2.06290       11.6110           0  -1.81190       1.18670    
      5302 BUTA     105      BUTA     DC1      DRUD     -2.33590      0.400000           0   0.00000       0.00000    
      5303 BUTA     105      BUTA     C2       CD32A     2.01970       11.6110           0  -1.59660       1.16930    
      5304 BUTA     105      BUTA     DC2      DRUD     -2.19270      0.400000           0   0.00000       0.00000    
      5305 BUTA     105      BUTA     C3       CD32A     1.90870       11.6110           0  -1.59660       1.16930    
      5306 BUTA     105      BUTA     DC3      DRUD     -2.19270      0.400000           0   0.00000       0.00000    
      5307 BUTA     105      BUTA     C4       CD2O2A    2.36920       11.6110           0  -1.01600      0.899000    
      5308 BUTA     105      BUTA     DC4      DRUD     -1.74920      0.400000           0   0.00000       0.00000    
      5309 BUTA     105      BUTA     O1       OD2C2A    1.45090       15.5994           0 -0.699000       2.39900    
      5310 BUTA     105      BUTA     DO1      DRUD     -1.45090      0.400000           0   0.00000       0.00000    
      5311 BUTA     105      BUTA     O2       OD2C2A    1.45090       15.5994           0 -0.699000       2.39900    
      5312 BUTA     105      BUTA     DO2      DRUD     -1.45090      0.400000           0   0.00000       0.00000    
      5313 BUTA     105      BUTA     H1       HDA3A    0.900000E-01   1.00800           0   0.00000       0.00000    
      5314 BUTA     105      BUTA     H2       HDA3A    0.900000E-01   1.00800           0   0.00000       0.00000    
      5315 BUTA     105      BUTA     H3       HDA3A    0.900000E-01   1.00800           0   0.00000       0.00000    
      5316 BUTA     105      BUTA     H4       HDA2A    0.900000E-01   1.00800           0   0.00000       0.00000    
      5317 BUTA     105      BUTA     H5       HDA2A    0.900000E-01   1.00800           0   0.00000       0.00000    
      5318 BUTA     105      BUTA     H6       HDA2A    0.900000E-01   1.00800           0   0.00000       0.00000    
      5319 BUTA     105      BUTA     H7       HDA2A    0.900000E-01   1.00800           0   0.00000       0.00000    
      5320 BUTA     105      BUTA     H8       DUMH      0.00000       1.00800           0   0.00000       0.00000    
      5321 BUTA     105      BUTA     H9       DUMH      0.00000       1.00800           0   0.00000       0.00000    
      5322 BUTA     105      BUTA     LPO11    LPD     -0.380000       0.00000          -1   0.00000       0.00000    
      5323 BUTA     105      BUTA     LPO12    LPD     -0.380000       0.00000          -1   0.00000       0.00000    
      5324 BUTA     105      BUTA     LPO21    LPD     -0.380000       0.00000          -1   0.00000       0.00000    
      5325 BUTA     105      BUTA     LPO22    LPD     -0.380000       0.00000          -1   0.00000       0.00000    
      5326 BUTA     106      BUTA     C1       CD33A     2.06290       11.6110           0  -1.81190       1.18670    
      5327 BUTA     106      BUTA     DC1      DRUD     -2.33590      0.400000           0   0.00000       0.00000    
      5328 BUTA     106      BUTA     C2       CD32A     2.01970       11.6110           0  -1.59660       1.16930    
      5329 BUTA     106      BUTA     DC2      DRUD     -2.19270      0.400000           0   0.00000       0.00000    
      5330 BUTA     106      BUTA     C3       CD32A     1.90870       11.6110           0  -1.59660       1.16930    
      5331 BUTA     106      BUTA     DC3      DRUD     -2.19270      0.400000           0   0.00000       0.00000    
      5332 BUTA     106      BUTA     C4       CD2O2A    2.36920       11.6110           0  -1.01600      0.899000    
      5333 BUTA     106      BUTA     DC4      DRUD     -1.74920      0.400000           0   0.00000       0.00000    
      5334 BUTA     106      BUTA     O1       OD2C2A    1.45090       15.5994           0 -0.699000       2.39900    
      5335 BUTA     106      BUTA     DO1      DRUD     -1.45090      0.400000           0   0.00000       0.00000    
      5336 BUTA     106      BUTA     O2       OD2C2A    1.45090       15.5994           0 -0.699000       2.39900    
      5337 BUTA     106      BUTA     DO2      DRUD     -1.45090      0.400000           0   0.00000       0.00000    
      5338 BUTA     106      BUTA     H1       HDA3A    0.900000E-01   1.00800           0   0.00000       0.00000    
      5339 BUTA     106      BUTA     H2       HDA3A    0.900000E-01   1.00800           0   0.00000       0.00000    
      5340 BUTA     106      BUTA     H3       HDA3A    0.900000E-01   1.00800           0   0.00000       0.00000    
      5341 BUTA     106      BUTA     H4       HDA2A    0.900000E-01   1.00800           0   0.00000       0.00000    
      5342 BUTA     106      BUTA     H5       HDA2A    0.900000E-01   1.00800           0   0.00000       0.00000    
      5343 BUTA     106      BUTA     H6       HDA2A    0.900000E-01   1.00800           0   0.00000       0.00000    
      5344 BUTA     106      BUTA     H7       HDA2A    0.900000E-01   1.00800           0   0.00000       0.00000    
      5345 BUTA     106      BUTA     H8       DUMH      0.00000       1.00800           0   0.00000       0.00000    
      5346 BUTA     106      BUTA     H9       DUMH      0.00000       1.00800           0   0.00000       0.00000    
      5347 BUTA     106      BUTA     LPO11    LPD     -0.380000       0.00000          -1   0.00000       0.00000    
      5348 BUTA     106      BUTA     LPO12    LPD     -0.380000       0.00000          -1   0.00000       0.00000    
      5349 BUTA     106      BUTA     LPO21    LPD     -0.380000       0.00000          -1   0.00000       0.00000    
      5350 BUTA     106      BUTA     LPO22    LPD     -0.380000       0.00000          -1   0.00000       0.00000    
      5351 BUTA     107      BUTA     C1       CD33A     2.06290       11.6110           0  -1.81190       1.18670    
      5352 BUTA     107      BUTA     DC1      DRUD     -2.33590      0.400000           0   0.00000       0.00000    
      5353 BUTA     107      BUTA     C2       CD32A     2.01970       11.6110           0  -1.59660       1.16930    
      5354 BUTA     107      BUTA     DC2      DRUD     -2.19270      0.400000           0   0.00000       0.00000    
      5355 BUTA     107      BUTA     C3       CD32A     1.90870       11.6110           0  -1.59660       1.16930    
      5356 BUTA     107      BUTA     DC3      DRUD     -2.19270      0.400000           0   0.00000       0.00000    
      5357 BUTA     107      BUTA     C4       CD2O2A    2.36920       11.6110           0  -1.01600      0.899000    
      5358 BUTA     107      BUTA     DC4      DRUD     -1.74920      0.400000           0   0.00000       0.00000    
      5359 BUTA     107      BUTA     O1       OD2C2A    1.45090       15.5994           0 -0.699000       2.39900    
      5360 BUTA     107      BUTA     DO1      DRUD     -1.45090      0.400000           0   0.00000       0.00000    
      5361 BUTA     107      BUTA     O2       OD2C2A    1.45090       15.5994           0 -0.699000       2.39900    
      5362 BUTA     107      BUTA     DO2      DRUD     -1.45090      0.400000           0   0.00000       0.00000    
      5363 BUTA     107      BUTA     H1       HDA3A    0.900000E-01   1.00800           0   0.00000       0.00000    
      5364 BUTA     107      BUTA     H2       HDA3A    0.900000E-01   1.00800           0   0.00000       0.00000    
      5365 BUTA     107      BUTA     H3       HDA3A    0.900000E-01   1.00800           0   0.00000       0.00000    
      5366 BUTA     107      BUTA     H4       HDA2A    0.900000E-01   1.00800           0   0.00000       0.00000    
      5367 BUTA     107      BUTA     H5       HDA2A    0.900000E-01   1.00800           0   0.00000       0.00000    
      5368 BUTA     107      BUTA     H6       HDA2A    0.900000E-01   1.00800           0   0.00000       0.00000    
      5369 BUTA     107      BUTA     H7       HDA2A    0.900000E-01   1.00800           0   0.00000       0.00000    
      5370 BUTA     107      BUTA     H8       DUMH      0.00000       1.00800           0   0.00000       0.00000    
      5371 BUTA     107      BUTA     H9       DUMH      0.00000       1.00800           0   0.00000       0.00000    
      5372 BUTA     107      BUTA     LPO11    LPD     -0.380000       0.00000          -1   0.00000       0.00000    
      5373 BUTA     107      BUTA     LPO12    LPD     -0.380000       0.00000          -1   0.00000       0.00000    
      5374 BUTA     107      BUTA     LPO21    LPD     -0.380000       0.00000          -1   0.00000       0.00000    
      5375 BUTA     107      BUTA     LPO22    LPD     -0.380000       0.00000          -1   0.00000       0.00000    
      5376 BUTA     108      BUTA     C1       CD33A     2.06290       11.6110           0  -1.81190       1.18670    
      5377 BUTA     108      BUTA     DC1      DRUD     -2.33590      0.400000           0   0.00000       0.00000    
      5378 BUTA     108      BUTA     C2       CD32A     2.01970       11.6110           0  -1.59660       1.16930    
      5379 BUTA     108      BUTA     DC2      DRUD     -2.19270      0.400000           0   0.00000       0.00000    
      5380 BUTA     108      BUTA     C3       CD32A     1.90870       11.6110           0  -1.59660       1.16930    
      5381 BUTA     108      BUTA     DC3      DRUD     -2.19270      0.400000           0   0.00000       0.00000    
      5382 BUTA     108      BUTA     C4       CD2O2A    2.36920       11.6110           0  -1.01600      0.899000    
      5383 BUTA     108      BUTA     DC4      DRUD     -1.74920      0.400000           0   0.00000       0.00000    
      5384 BUTA     108      BUTA     O1       OD2C2A    1.45090       15.5994           0 -0.699000       2.39900    
      5385 BUTA     108      BUTA     DO1      DRUD     -1.45090      0.400000           0   0.00000       0.00000    
      5386 BUTA     108      BUTA     O2       OD2C2A    1.45090       15.5994           0 -0.699000       2.39900    
      5387 BUTA     108      BUTA     DO2      DRUD     -1.45090      0.400000           0   0.00000       0.00000    
      5388 BUTA     108      BUTA     H1       HDA3A    0.900000E-01   1.00800           0   0.00000       0.00000    
      5389 BUTA     108      BUTA     H2       HDA3A    0.900000E-01   1.00800           0   0.00000       0.00000    
      5390 BUTA     108      BUTA     H3       HDA3A    0.900000E-01   1.00800           0   0.00000       0.00000    
      5391 BUTA     108      BUTA     H4       HDA2A    0.900000E-01   1.00800           0   0.00000       0.00000    
      5392 BUTA     108      BUTA     H5       HDA2A    0.900000E-01   1.00800           0   0.00000       0.00000    
      5393 BUTA     108      BUTA     H6       HDA2A    0.900000E-01   1.00800           0   0.00000       0.00000    
      5394 BUTA     108      BUTA     H7       HDA2A    0.900000E-01   1.00800           0   0.00000       0.00000    
      5395 BUTA     108      BUTA     H8       DUMH      0.00000       1.00800           0   0.00000       0.00000    
      5396 BUTA     108      BUTA     H9       DUMH      0.00000       1.00800           0   0.00000       0.00000    
      5397 BUTA     108      BUTA     LPO11    LPD     -0.380000       0.00000          -1   0.00000       0.00000    
      5398 BUTA     108      BUTA     LPO12    LPD     -0.380000       0.00000          -1   0.00000       0.00000    
      5399 BUTA     108      BUTA     LPO21    LPD     -0.380000       0.00000          -1   0.00000       0.00000    
      5400 BUTA     108      BUTA     LPO22    LPD     -0.380000       0.00000          -1   0.00000       0.00000    
      5401 BUTA     109      BUTA     C1       CD33A     2.06290       11.6110           0  -1.81190       1.18670    
      5402 BUTA     109      BUTA     DC1      DRUD     -2.33590      0.400000           0   0.00000       0.00000    
      5403 BUTA     109      BUTA     C2       CD32A     2.01970       11.6110           0  -1.59660       1.16930    
      5404 BUTA     109      BUTA     DC2      DRUD     -2.19270      0.400000           0   0.00000       0.00000    
      5405 BUTA     109      BUTA     C3       CD32A     1.90870       11.6110           0  -1.59660       1.16930    
      5406 BUTA     109      BUTA     DC3      DRUD     -2.19270      0.400000           0   0.00000       0.00000    
      5407 BUTA     109      BUTA     C4       CD2O2A    2.36920       11.6110           0  -1.01600      0.899000    
      5408 BUTA     109      BUTA     DC4      DRUD     -1.74920      0.400000           0   0.00000       0.00000    
      5409 BUTA     109      BUTA     O1       OD2C2A    1.45090       15.5994           0 -0.699000       2.39900    
      5410 BUTA     109      BUTA     DO1      DRUD     -1.45090      0.400000           0   0.00000       0.00000    
      5411 BUTA     109      BUTA     O2       OD2C2A    1.45090       15.5994           0 -0.699000       2.39900    
      5412 BUTA     109      BUTA     DO2      DRUD     -1.45090      0.400000           0   0.00000       0.00000    
      5413 BUTA     109      BUTA     H1       HDA3A    0.900000E-01   1.00800           0   0.00000       0.00000    
      5414 BUTA     109      BUTA     H2       HDA3A    0.900000E-01   1.00800           0   0.00000       0.00000    
      5415 BUTA     109      BUTA     H3       HDA3A    0.900000E-01   1.00800           0   0.00000       0.00000    
      5416 BUTA     109      BUTA     H4       HDA2A    0.900000E-01   1.00800           0   0.00000       0.00000    
      5417 BUTA     109      BUTA     H5       HDA2A    0.900000E-01   1.00800           0   0.00000       0.00000    
      5418 BUTA     109      BUTA     H6       HDA2A    0.900000E-01   1.00800           0   0.00000       0.00000    
      5419 BUTA     109      BUTA     H7       HDA2A    0.900000E-01   1.00800           0   0.00000       0.00000    
      5420 BUTA     109      BUTA     H8       DUMH      0.00000       1.00800           0   0.00000       0.00000    
      5421 BUTA     109      BUTA     H9       DUMH      0.00000       1.00800           0   0.00000       0.00000    
      5422 BUTA     109      BUTA     LPO11    LPD     -0.380000       0.00000          -1   0.00000       0.00000    
      5423 BUTA     109      BUTA     LPO12    LPD     -0.380000       0.00000          -1   0.00000       0.00000    
      5424 BUTA     109      BUTA     LPO21    LPD     -0.380000       0.00000          -1   0.00000       0.00000    
      5425 BUTA     109      BUTA     LPO22    LPD     -0.380000       0.00000          -1   0.00000       0.00000    
      5426 BUTA     110      BUTA     C1       CD33A     2.06290       11.6110           0  -1.81190       1.18670    
      5427 BUTA     110      BUTA     DC1      DRUD     -2.33590      0.400000           0   0.00000       0.00000    
      5428 BUTA     110      BUTA     C2       CD32A     2.01970       11.6110           0  -1.59660       1.16930    
      5429 BUTA     110      BUTA     DC2      DRUD     -2.19270      0.400000           0   0.00000       0.00000    
      5430 BUTA     110      BUTA     C3       CD32A     1.90870       11.6110           0  -1.59660       1.16930    
      5431 BUTA     110      BUTA     DC3      DRUD     -2.19270      0.400000           0   0.00000       0.00000    
      5432 BUTA     110      BUTA     C4       CD2O2A    2.36920       11.6110           0  -1.01600      0.899000    
      5433 BUTA     110      BUTA     DC4      DRUD     -1.74920      0.400000           0   0.00000       0.00000    
      5434 BUTA     110      BUTA     O1       OD2C2A    1.45090       15.5994           0 -0.699000       2.39900    
      5435 BUTA     110      BUTA     DO1      DRUD     -1.45090      0.400000           0   0.00000       0.00000    
      5436 BUTA     110      BUTA     O2       OD2C2A    1.45090       15.5994           0 -0.699000       2.39900    
      5437 BUTA     110      BUTA     DO2      DRUD     -1.45090      0.400000           0   0.00000       0.00000    
      5438 BUTA     110      BUTA     H1       HDA3A    0.900000E-01   1.00800           0   0.00000       0.00000    
      5439 BUTA     110      BUTA     H2       HDA3A    0.900000E-01   1.00800           0   0.00000       0.00000    
      5440 BUTA     110      BUTA     H3       HDA3A    0.900000E-01   1.00800           0   0.00000       0.00000    
      5441 BUTA     110      BUTA     H4       HDA2A    0.900000E-01   1.00800           0   0.00000       0.00000    
      5442 BUTA     110      BUTA     H5       HDA2A    0.900000E-01   1.00800           0   0.00000       0.00000    
      5443 BUTA     110      BUTA     H6       HDA2A    0.900000E-01   1.00800           0   0.00000       0.00000    
      5444 BUTA     110      BUTA     H7       HDA2A    0.900000E-01   1.00800           0   0.00000       0.00000    
      5445 BUTA     110      BUTA     H8       DUMH      0.00000       1.00800           0   0.00000       0.00000    
      5446 BUTA     110      BUTA     H9       DUMH      0.00000       1.00800           0   0.00000       0.00000    
      5447 BUTA     110      BUTA     LPO11    LPD     -0.380000       0.00000          -1   0.00000       0.00000    
      5448 BUTA     110      BUTA     LPO12    LPD     -0.380000       0.00000          -1   0.00000       0.00000    
      5449 BUTA     110      BUTA     LPO21    LPD     -0.380000       0.00000          -1   0.00000       0.00000    
      5450 BUTA     110      BUTA     LPO22    LPD     -0.380000       0.00000          -1   0.00000       0.00000    
      5451 BUTA     111      BUTA     C1       CD33A     2.06290       11.6110           0  -1.81190       1.18670    
      5452 BUTA     111      BUTA     DC1      DRUD     -2.33590      0.400000           0   0.00000       0.00000    
      5453 BUTA     111      BUTA     C2       CD32A     2.01970       11.6110           0  -1.59660       1.16930    
      5454 BUTA     111      BUTA     DC2      DRUD     -2.19270      0.400000           0   0.00000       0.00000    
      5455 BUTA     111      BUTA     C3       CD32A     1.90870       11.6110           0  -1.59660       1.16930    
      5456 BUTA     111      BUTA     DC3      DRUD     -2.19270      0.400000           0   0.00000       0.00000    
      5457 BUTA     111      BUTA     C4       CD2O2A    2.36920       11.6110           0  -1.01600      0.899000    
      5458 BUTA     111      BUTA     DC4      DRUD     -1.74920      0.400000           0   0.00000       0.00000    
      5459 BUTA     111      BUTA     O1       OD2C2A    1.45090       15.5994           0 -0.699000       2.39900    
      5460 BUTA     111      BUTA     DO1      DRUD     -1.45090      0.400000           0   0.00000       0.00000    
      5461 BUTA     111      BUTA     O2       OD2C2A    1.45090       15.5994           0 -0.699000       2.39900    
      5462 BUTA     111      BUTA     DO2      DRUD     -1.45090      0.400000           0   0.00000       0.00000    
      5463 BUTA     111      BUTA     H1       HDA3A    0.900000E-01   1.00800           0   0.00000       0.00000    
      5464 BUTA     111      BUTA     H2       HDA3A    0.900000E-01   1.00800           0   0.00000       0.00000    
      5465 BUTA     111      BUTA     H3       HDA3A    0.900000E-01   1.00800           0   0.00000       0.00000    
      5466 BUTA     111      BUTA     H4       HDA2A    0.900000E-01   1.00800           0   0.00000       0.00000    
      5467 BUTA     111      BUTA     H5       HDA2A    0.900000E-01   1.00800           0   0.00000       0.00000    
      5468 BUTA     111      BUTA     H6       HDA2A    0.900000E-01   1.00800           0   0.00000       0.00000    
      5469 BUTA     111      BUTA     H7       HDA2A    0.900000E-01   1.00800           0   0.00000       0.00000    
      5470 BUTA     111      BUTA     H8       DUMH      0.00000       1.00800           0   0.00000       0.00000    
      5471 BUTA     111      BUTA     H9       DUMH      0.00000       1.00800           0   0.00000       0.00000    
      5472 BUTA     111      BUTA     LPO11    LPD     -0.380000       0.00000          -1   0.00000       0.00000    
      5473 BUTA     111      BUTA     LPO12    LPD     -0.380000       0.00000          -1   0.00000       0.00000    
      5474 BUTA     111      BUTA     LPO21    LPD     -0.380000       0.00000          -1   0.00000       0.00000    
      5475 BUTA     111      BUTA     LPO22    LPD     -0.380000       0.00000          -1   0.00000       0.00000    
      5476 BUTA     112      BUTA     C1       CD33A     2.06290       11.6110           0  -1.81190       1.18670    
      5477 BUTA     112      BUTA     DC1      DRUD     -2.33590      0.400000           0   0.00000       0.00000    
      5478 BUTA     112      BUTA     C2       CD32A     2.01970       11.6110           0  -1.59660       1.16930    
      5479 BUTA     112      BUTA     DC2      DRUD     -2.19270      0.400000           0   0.00000       0.00000    
      5480 BUTA     112      BUTA     C3       CD32A     1.90870       11.6110           0  -1.59660       1.16930    
      5481 BUTA     112      BUTA     DC3      DRUD     -2.19270      0.400000           0   0.00000       0.00000    
      5482 BUTA     112      BUTA     C4       CD2O2A    2.36920       11.6110           0  -1.01600      0.899000    
      5483 BUTA     112      BUTA     DC4      DRUD     -1.74920      0.400000           0   0.00000       0.00000    
      5484 BUTA     112      BUTA     O1       OD2C2A    1.45090       15.5994           0 -0.699000       2.39900    
      5485 BUTA     112      BUTA     DO1      DRUD     -1.45090      0.400000           0   0.00000       0.00000    
      5486 BUTA     112      BUTA     O2       OD2C2A    1.45090       15.5994           0 -0.699000       2.39900    
      5487 BUTA     112      BUTA     DO2      DRUD     -1.45090      0.400000           0   0.00000       0.00000    
      5488 BUTA     112      BUTA     H1       HDA3A    0.900000E-01   1.00800           0   0.00000       0.00000    
      5489 BUTA     112      BUTA     H2       HDA3A    0.900000E-01   1.00800           0   0.00000       0.00000    
      5490 BUTA     112      BUTA     H3       HDA3A    0.900000E-01   1.00800           0   0.00000       0.00000    
      5491 BUTA     112      BUTA     H4       HDA2A    0.900000E-01   1.00800           0   0.00000       0.00000    
      5492 BUTA     112      BUTA     H5       HDA2A    0.900000E-01   1.00800           0   0.00000       0.00000    
      5493 BUTA     112      BUTA     H6       HDA2A    0.900000E-01   1.00800           0   0.00000       0.00000    
      5494 BUTA     112      BUTA     H7       HDA2A    0.900000E-01   1.00800           0   0.00000       0.00000    
      5495 BUTA     112      BUTA     H8       DUMH      0.00000       1.00800           0   0.00000       0.00000    
      5496 BUTA     112      BUTA     H9       DUMH      0.00000       1.00800           0   0.00000       0.00000    
      5497 BUTA     112      BUTA     LPO11    LPD     -0.380000       0.00000          -1   0.00000       0.00000    
      5498 BUTA     112      BUTA     LPO12    LPD     -0.380000       0.00000          -1   0.00000       0.00000    
      5499 BUTA     112      BUTA     LPO21    LPD     -0.380000       0.00000          -1   0.00000       0.00000    
      5500 BUTA     112      BUTA     LPO22    LPD     -0.380000       0.00000          -1   0.00000       0.00000    
      5501 BUTA     113      BUTA     C1       CD33A     2.06290       11.6110           0  -1.81190       1.18670    
      5502 BUTA     113      BUTA     DC1      DRUD     -2.33590      0.400000           0   0.00000       0.00000    
      5503 BUTA     113      BUTA     C2       CD32A     2.01970       11.6110           0  -1.59660       1.16930    
      5504 BUTA     113      BUTA     DC2      DRUD     -2.19270      0.400000           0   0.00000       0.00000    
      5505 BUTA     113      BUTA     C3       CD32A     1.90870       11.6110           0  -1.59660       1.16930    
      5506 BUTA     113      BUTA     DC3      DRUD     -2.19270      0.400000           0   0.00000       0.00000    
      5507 BUTA     113      BUTA     C4       CD2O2A    2.36920       11.6110           0  -1.01600      0.899000    
      5508 BUTA     113      BUTA     DC4      DRUD     -1.74920      0.400000           0   0.00000       0.00000    
      5509 BUTA     113      BUTA     O1       OD2C2A    1.45090       15.5994           0 -0.699000       2.39900    
      5510 BUTA     113      BUTA     DO1      DRUD     -1.45090      0.400000           0   0.00000       0.00000    
      5511 BUTA     113      BUTA     O2       OD2C2A    1.45090       15.5994           0 -0.699000       2.39900    
      5512 BUTA     113      BUTA     DO2      DRUD     -1.45090      0.400000           0   0.00000       0.00000    
      5513 BUTA     113      BUTA     H1       HDA3A    0.900000E-01   1.00800           0   0.00000       0.00000    
      5514 BUTA     113      BUTA     H2       HDA3A    0.900000E-01   1.00800           0   0.00000       0.00000    
      5515 BUTA     113      BUTA     H3       HDA3A    0.900000E-01   1.00800           0   0.00000       0.00000    
      5516 BUTA     113      BUTA     H4       HDA2A    0.900000E-01   1.00800           0   0.00000       0.00000    
      5517 BUTA     113      BUTA     H5       HDA2A    0.900000E-01   1.00800           0   0.00000       0.00000    
      5518 BUTA     113      BUTA     H6       HDA2A    0.900000E-01   1.00800           0   0.00000       0.00000    
      5519 BUTA     113      BUTA     H7       HDA2A    0.900000E-01   1.00800           0   0.00000       0.00000    
      5520 BUTA     113      BUTA     H8       DUMH      0.00000       1.00800           0   0.00000       0.00000    
      5521 BUTA     113      BUTA     H9       DUMH      0.00000       1.00800           0   0.00000       0.00000    
      5522 BUTA     113      BUTA     LPO11    LPD     -0.380000       0.00000          -1   0.00000       0.00000    
      5523 BUTA     113      BUTA     LPO12    LPD     -0.380000       0.00000          -1   0.00000       0.00000    
      5524 BUTA     113      BUTA     LPO21    LPD     -0.380000       0.00000          -1   0.00000       0.00000    
      5525 BUTA     113      BUTA     LPO22    LPD     -0.380000       0.00000          -1   0.00000       0.00000    
      5526 BUTA     114      BUTA     C1       CD33A     2.06290       11.6110           0  -1.81190       1.18670    
      5527 BUTA     114      BUTA     DC1      DRUD     -2.33590      0.400000           0   0.00000       0.00000    
      5528 BUTA     114      BUTA     C2       CD32A     2.01970       11.6110           0  -1.59660       1.16930    
      5529 BUTA     114      BUTA     DC2      DRUD     -2.19270      0.400000           0   0.00000       0.00000    
      5530 BUTA     114      BUTA     C3       CD32A     1.90870       11.6110           0  -1.59660       1.16930    
      5531 BUTA     114      BUTA     DC3      DRUD     -2.19270      0.400000           0   0.00000       0.00000    
      5532 BUTA     114      BUTA     C4       CD2O2A    2.36920       11.6110           0  -1.01600      0.899000    
      5533 BUTA     114      BUTA     DC4      DRUD     -1.74920      0.400000           0   0.00000       0.00000    
      5534 BUTA     114      BUTA     O1       OD2C2A    1.45090       15.5994           0 -0.699000       2.39900    
      5535 BUTA     114      BUTA     DO1      DRUD     -1.45090      0.400000           0   0.00000       0.00000    
      5536 BUTA     114      BUTA     O2       OD2C2A    1.45090       15.5994           0 -0.699000       2.39900    
      5537 BUTA     114      BUTA     DO2      DRUD     -1.45090      0.400000           0   0.00000       0.00000    
      5538 BUTA     114      BUTA     H1       HDA3A    0.900000E-01   1.00800           0   0.00000       0.00000    
      5539 BUTA     114      BUTA     H2       HDA3A    0.900000E-01   1.00800           0   0.00000       0.00000    
      5540 BUTA     114      BUTA     H3       HDA3A    0.900000E-01   1.00800           0   0.00000       0.00000    
      5541 BUTA     114      BUTA     H4       HDA2A    0.900000E-01   1.00800           0   0.00000       0.00000    
      5542 BUTA     114      BUTA     H5       HDA2A    0.900000E-01   1.00800           0   0.00000       0.00000    
      5543 BUTA     114      BUTA     H6       HDA2A    0.900000E-01   1.00800           0   0.00000       0.00000    
      5544 BUTA     114      BUTA     H7       HDA2A    0.900000E-01   1.00800           0   0.00000       0.00000    
      5545 BUTA     114      BUTA     H8       DUMH      0.00000       1.00800           0   0.00000       0.00000    
      5546 BUTA     114      BUTA     H9       DUMH      0.00000       1.00800           0   0.00000       0.00000    
      5547 BUTA     114      BUTA     LPO11    LPD     -0.380000       0.00000          -1   0.00000       0.00000    
      5548 BUTA     114      BUTA     LPO12    LPD     -0.380000       0.00000          -1   0.00000       0.00000    
      5549 BUTA     114      BUTA     LPO21    LPD     -0.380000       0.00000          -1   0.00000       0.00000    
      5550 BUTA     114      BUTA     LPO22    LPD     -0.380000       0.00000          -1   0.00000       0.00000    
      5551 BUTA     115      BUTA     C1       CD33A     2.06290       11.6110           0  -1.81190       1.18670    
      5552 BUTA     115      BUTA     DC1      DRUD     -2.33590      0.400000           0   0.00000       0.00000    
      5553 BUTA     115      BUTA     C2       CD32A     2.01970       11.6110           0  -1.59660       1.16930    
      5554 BUTA     115      BUTA     DC2      DRUD     -2.19270      0.400000           0   0.00000       0.00000    
      5555 BUTA     115      BUTA     C3       CD32A     1.90870       11.6110           0  -1.59660       1.16930    
      5556 BUTA     115      BUTA     DC3      DRUD     -2.19270      0.400000           0   0.00000       0.00000    
      5557 BUTA     115      BUTA     C4       CD2O2A    2.36920       11.6110           0  -1.01600      0.899000    
      5558 BUTA     115      BUTA     DC4      DRUD     -1.74920      0.400000           0   0.00000       0.00000    
      5559 BUTA     115      BUTA     O1       OD2C2A    1.45090       15.5994           0 -0.699000       2.39900    
      5560 BUTA     115      BUTA     DO1      DRUD     -1.45090      0.400000           0   0.00000       0.00000    
      5561 BUTA     115      BUTA     O2       OD2C2A    1.45090       15.5994           0 -0.699000       2.39900    
      5562 BUTA     115      BUTA     DO2      DRUD     -1.45090      0.400000           0   0.00000       0.00000    
      5563 BUTA     115      BUTA     H1       HDA3A    0.900000E-01   1.00800           0   0.00000       0.00000    
      5564 BUTA     115      BUTA     H2       HDA3A    0.900000E-01   1.00800           0   0.00000       0.00000    
      5565 BUTA     115      BUTA     H3       HDA3A    0.900000E-01   1.00800           0   0.00000       0.00000    
      5566 BUTA     115      BUTA     H4       HDA2A    0.900000E-01   1.00800           0   0.00000       0.00000    
      5567 BUTA     115      BUTA     H5       HDA2A    0.900000E-01   1.00800           0   0.00000       0.00000    
      5568 BUTA     115      BUTA     H6       HDA2A    0.900000E-01   1.00800           0   0.00000       0.00000    
      5569 BUTA     115      BUTA     H7       HDA2A    0.900000E-01   1.00800           0   0.00000       0.00000    
      5570 BUTA     115      BUTA     H8       DUMH      0.00000       1.00800           0   0.00000       0.00000    
      5571 BUTA     115      BUTA     H9       DUMH      0.00000       1.00800           0   0.00000       0.00000    
      5572 BUTA     115      BUTA     LPO11    LPD     -0.380000       0.00000          -1   0.00000       0.00000    
      5573 BUTA     115      BUTA     LPO12    LPD     -0.380000       0.00000          -1   0.00000       0.00000    
      5574 BUTA     115      BUTA     LPO21    LPD     -0.380000       0.00000          -1   0.00000       0.00000    
      5575 BUTA     115      BUTA     LPO22    LPD     -0.380000       0.00000          -1   0.00000       0.00000    
      5576 BUTA     116      BUTA     C1       CD33A     2.06290       11.6110           0  -1.81190       1.18670    
      5577 BUTA     116      BUTA     DC1      DRUD     -2.33590      0.400000           0   0.00000       0.00000    
      5578 BUTA     116      BUTA     C2       CD32A     2.01970       11.6110           0  -1.59660       1.16930    
      5579 BUTA     116      BUTA     DC2      DRUD     -2.19270      0.400000           0   0.00000       0.00000    
      5580 BUTA     116      BUTA     C3       CD32A     1.90870       11.6110           0  -1.59660       1.16930    
      5581 BUTA     116      BUTA     DC3      DRUD     -2.19270      0.400000           0   0.00000       0.00000    
      5582 BUTA     116      BUTA     C4       CD2O2A    2.36920       11.6110           0  -1.01600      0.899000    
      5583 BUTA     116      BUTA     DC4      DRUD     -1.74920      0.400000           0   0.00000       0.00000    
      5584 BUTA     116      BUTA     O1       OD2C2A    1.45090       15.5994           0 -0.699000       2.39900    
      5585 BUTA     116      BUTA     DO1      DRUD     -1.45090      0.400000           0   0.00000       0.00000    
      5586 BUTA     116      BUTA     O2       OD2C2A    1.45090       15.5994           0 -0.699000       2.39900    
      5587 BUTA     116      BUTA     DO2      DRUD     -1.45090      0.400000           0   0.00000       0.00000    
      5588 BUTA     116      BUTA     H1       HDA3A    0.900000E-01   1.00800           0   0.00000       0.00000    
      5589 BUTA     116      BUTA     H2       HDA3A    0.900000E-01   1.00800           0   0.00000       0.00000    
      5590 BUTA     116      BUTA     H3       HDA3A    0.900000E-01   1.00800           0   0.00000       0.00000    
      5591 BUTA     116      BUTA     H4       HDA2A    0.900000E-01   1.00800           0   0.00000       0.00000    
      5592 BUTA     116      BUTA     H5       HDA2A    0.900000E-01   1.00800           0   0.00000       0.00000    
      5593 BUTA     116      BUTA     H6       HDA2A    0.900000E-01   1.00800           0   0.00000       0.00000    
      5594 BUTA     116      BUTA     H7       HDA2A    0.900000E-01   1.00800           0   0.00000       0.00000    
      5595 BUTA     116      BUTA     H8       DUMH      0.00000       1.00800           0   0.00000       0.00000    
      5596 BUTA     116      BUTA     H9       DUMH      0.00000       1.00800           0   0.00000       0.00000    
      5597 BUTA     116      BUTA     LPO11    LPD     -0.380000       0.00000          -1   0.00000       0.00000    
      5598 BUTA     116      BUTA     LPO12    LPD     -0.380000       0.00000          -1   0.00000       0.00000    
      5599 BUTA     116      BUTA     LPO21    LPD     -0.380000       0.00000          -1   0.00000       0.00000    
      5600 BUTA     116      BUTA     LPO22    LPD     -0.380000       0.00000          -1   0.00000       0.00000    
      5601 BUTA     117      BUTA     C1       CD33A     2.06290       11.6110           0  -1.81190       1.18670    
      5602 BUTA     117      BUTA     DC1      DRUD     -2.33590      0.400000           0   0.00000       0.00000    
      5603 BUTA     117      BUTA     C2       CD32A     2.01970       11.6110           0  -1.59660       1.16930    
      5604 BUTA     117      BUTA     DC2      DRUD     -2.19270      0.400000           0   0.00000       0.00000    
      5605 BUTA     117      BUTA     C3       CD32A     1.90870       11.6110           0  -1.59660       1.16930    
      5606 BUTA     117      BUTA     DC3      DRUD     -2.19270      0.400000           0   0.00000       0.00000    
      5607 BUTA     117      BUTA     C4       CD2O2A    2.36920       11.6110           0  -1.01600      0.899000    
      5608 BUTA     117      BUTA     DC4      DRUD     -1.74920      0.400000           0   0.00000       0.00000    
      5609 BUTA     117      BUTA     O1       OD2C2A    1.45090       15.5994           0 -0.699000       2.39900    
      5610 BUTA     117      BUTA     DO1      DRUD     -1.45090      0.400000           0   0.00000       0.00000    
      5611 BUTA     117      BUTA     O2       OD2C2A    1.45090       15.5994           0 -0.699000       2.39900    
      5612 BUTA     117      BUTA     DO2      DRUD     -1.45090      0.400000           0   0.00000       0.00000    
      5613 BUTA     117      BUTA     H1       HDA3A    0.900000E-01   1.00800           0   0.00000       0.00000    
      5614 BUTA     117      BUTA     H2       HDA3A    0.900000E-01   1.00800           0   0.00000       0.00000    
      5615 BUTA     117      BUTA     H3       HDA3A    0.900000E-01   1.00800           0   0.00000       0.00000    
      5616 BUTA     117      BUTA     H4       HDA2A    0.900000E-01   1.00800           0   0.00000       0.00000    
      5617 BUTA     117      BUTA     H5       HDA2A    0.900000E-01   1.00800           0   0.00000       0.00000    
      5618 BUTA     117      BUTA     H6       HDA2A    0.900000E-01   1.00800           0   0.00000       0.00000    
      5619 BUTA     117      BUTA     H7       HDA2A    0.900000E-01   1.00800           0   0.00000       0.00000    
      5620 BUTA     117      BUTA     H8       DUMH      0.00000       1.00800           0   0.00000       0.00000    
      5621 BUTA     117      BUTA     H9       DUMH      0.00000       1.00800           0   0.00000       0.00000    
      5622 BUTA     117      BUTA     LPO11    LPD     -0.380000       0.00000          -1   0.00000       0.00000    
      5623 BUTA     117      BUTA     LPO12    LPD     -0.380000       0.00000          -1   0.00000       0.00000    
      5624 BUTA     117      BUTA     LPO21    LPD     -0.380000       0.00000          -1   0.00000       0.00000    
      5625 BUTA     117      BUTA     LPO22    LPD     -0.380000       0.00000          -1   0.00000       0.00000    
      5626 BUTA     118      BUTA     C1       CD33A     2.06290       11.6110           0  -1.81190       1.18670    
      5627 BUTA     118      BUTA     DC1      DRUD     -2.33590      0.400000           0   0.00000       0.00000    
      5628 BUTA     118      BUTA     C2       CD32A     2.01970       11.6110           0  -1.59660       1.16930    
      5629 BUTA     118      BUTA     DC2      DRUD     -2.19270      0.400000           0   0.00000       0.00000    
      5630 BUTA     118      BUTA     C3       CD32A     1.90870       11.6110           0  -1.59660       1.16930    
      5631 BUTA     118      BUTA     DC3      DRUD     -2.19270      0.400000           0   0.00000       0.00000    
      5632 BUTA     118      BUTA     C4       CD2O2A    2.36920       11.6110           0  -1.01600      0.899000    
      5633 BUTA     118      BUTA     DC4      DRUD     -1.74920      0.400000           0   0.00000       0.00000    
      5634 BUTA     118      BUTA     O1       OD2C2A    1.45090       15.5994           0 -0.699000       2.39900    
      5635 BUTA     118      BUTA     DO1      DRUD     -1.45090      0.400000           0   0.00000       0.00000    
      5636 BUTA     118      BUTA     O2       OD2C2A    1.45090       15.5994           0 -0.699000       2.39900    
      5637 BUTA     118      BUTA     DO2      DRUD     -1.45090      0.400000           0   0.00000       0.00000    
      5638 BUTA     118      BUTA     H1       HDA3A    0.900000E-01   1.00800           0   0.00000       0.00000    
      5639 BUTA     118      BUTA     H2       HDA3A    0.900000E-01   1.00800           0   0.00000       0.00000    
      5640 BUTA     118      BUTA     H3       HDA3A    0.900000E-01   1.00800           0   0.00000       0.00000    
      5641 BUTA     118      BUTA     H4       HDA2A    0.900000E-01   1.00800           0   0.00000       0.00000    
      5642 BUTA     118      BUTA     H5       HDA2A    0.900000E-01   1.00800           0   0.00000       0.00000    
      5643 BUTA     118      BUTA     H6       HDA2A    0.900000E-01   1.00800           0   0.00000       0.00000    
      5644 BUTA     118      BUTA     H7       HDA2A    0.900000E-01   1.00800           0   0.00000       0.00000    
      5645 BUTA     118      BUTA     H8       DUMH      0.00000       1.00800           0   0.00000       0.00000    
      5646 BUTA     118      BUTA     H9       DUMH      0.00000       1.00800           0   0.00000       0.00000    
      5647 BUTA     118      BUTA     LPO11    LPD     -0.380000       0.00000          -1   0.00000       0.00000    
      5648 BUTA     118      BUTA     LPO12    LPD     -0.380000       0.00000          -1   0.00000       0.00000    
      5649 BUTA     118      BUTA     LPO21    LPD     -0.380000       0.00000          -1   0.00000       0.00000    
      5650 BUTA     118      BUTA     LPO22    LPD     -0.380000       0.00000          -1   0.00000       0.00000    
      5651 BUTA     119      BUTA     C1       CD33A     2.06290       11.6110           0  -1.81190       1.18670    
      5652 BUTA     119      BUTA     DC1      DRUD     -2.33590      0.400000           0   0.00000       0.00000    
      5653 BUTA     119      BUTA     C2       CD32A     2.01970       11.6110           0  -1.59660       1.16930    
      5654 BUTA     119      BUTA     DC2      DRUD     -2.19270      0.400000           0   0.00000       0.00000    
      5655 BUTA     119      BUTA     C3       CD32A     1.90870       11.6110           0  -1.59660       1.16930    
      5656 BUTA     119      BUTA     DC3      DRUD     -2.19270      0.400000           0   0.00000       0.00000    
      5657 BUTA     119      BUTA     C4       CD2O2A    2.36920       11.6110           0  -1.01600      0.899000    
      5658 BUTA     119      BUTA     DC4      DRUD     -1.74920      0.400000           0   0.00000       0.00000    
      5659 BUTA     119      BUTA     O1       OD2C2A    1.45090       15.5994           0 -0.699000       2.39900    
      5660 BUTA     119      BUTA     DO1      DRUD     -1.45090      0.400000           0   0.00000       0.00000    
      5661 BUTA     119      BUTA     O2       OD2C2A    1.45090       15.5994           0 -0.699000       2.39900    
      5662 BUTA     119      BUTA     DO2      DRUD     -1.45090      0.400000           0   0.00000       0.00000    
      5663 BUTA     119      BUTA     H1       HDA3A    0.900000E-01   1.00800           0   0.00000       0.00000    
      5664 BUTA     119      BUTA     H2       HDA3A    0.900000E-01   1.00800           0   0.00000       0.00000    
      5665 BUTA     119      BUTA     H3       HDA3A    0.900000E-01   1.00800           0   0.00000       0.00000    
      5666 BUTA     119      BUTA     H4       HDA2A    0.900000E-01   1.00800           0   0.00000       0.00000    
      5667 BUTA     119      BUTA     H5       HDA2A    0.900000E-01   1.00800           0   0.00000       0.00000    
      5668 BUTA     119      BUTA     H6       HDA2A    0.900000E-01   1.00800           0   0.00000       0.00000    
      5669 BUTA     119      BUTA     H7       HDA2A    0.900000E-01   1.00800           0   0.00000       0.00000    
      5670 BUTA     119      BUTA     H8       DUMH      0.00000       1.00800           0   0.00000       0.00000    
      5671 BUTA     119      BUTA     H9       DUMH      0.00000       1.00800           0   0.00000       0.00000    
      5672 BUTA     119      BUTA     LPO11    LPD     -0.380000       0.00000          -1   0.00000       0.00000    
      5673 BUTA     119      BUTA     LPO12    LPD     -0.380000       0.00000          -1   0.00000       0.00000    
      5674 BUTA     119      BUTA     LPO21    LPD     -0.380000       0.00000          -1   0.00000       0.00000    
      5675 BUTA     119      BUTA     LPO22    LPD     -0.380000       0.00000          -1   0.00000       0.00000    
      5676 BUTA     120      BUTA     C1       CD33A     2.06290       11.6110           0  -1.81190       1.18670    
      5677 BUTA     120      BUTA     DC1      DRUD     -2.33590      0.400000           0   0.00000       0.00000    
      5678 BUTA     120      BUTA     C2       CD32A     2.01970       11.6110           0  -1.59660       1.16930    
      5679 BUTA     120      BUTA     DC2      DRUD     -2.19270      0.400000           0   0.00000       0.00000    
      5680 BUTA     120      BUTA     C3       CD32A     1.90870       11.6110           0  -1.59660       1.16930    
      5681 BUTA     120      BUTA     DC3      DRUD     -2.19270      0.400000           0   0.00000       0.00000    
      5682 BUTA     120      BUTA     C4       CD2O2A    2.36920       11.6110           0  -1.01600      0.899000    
      5683 BUTA     120      BUTA     DC4      DRUD     -1.74920      0.400000           0   0.00000       0.00000    
      5684 BUTA     120      BUTA     O1       OD2C2A    1.45090       15.5994           0 -0.699000       2.39900    
      5685 BUTA     120      BUTA     DO1      DRUD     -1.45090      0.400000           0   0.00000       0.00000    
      5686 BUTA     120      BUTA     O2       OD2C2A    1.45090       15.5994           0 -0.699000       2.39900    
      5687 BUTA     120      BUTA     DO2      DRUD     -1.45090      0.400000           0   0.00000       0.00000    
      5688 BUTA     120      BUTA     H1       HDA3A    0.900000E-01   1.00800           0   0.00000       0.00000    
      5689 BUTA     120      BUTA     H2       HDA3A    0.900000E-01   1.00800           0   0.00000       0.00000    
      5690 BUTA     120      BUTA     H3       HDA3A    0.900000E-01   1.00800           0   0.00000       0.00000    
      5691 BUTA     120      BUTA     H4       HDA2A    0.900000E-01   1.00800           0   0.00000       0.00000    
      5692 BUTA     120      BUTA     H5       HDA2A    0.900000E-01   1.00800           0   0.00000       0.00000    
      5693 BUTA     120      BUTA     H6       HDA2A    0.900000E-01   1.00800           0   0.00000       0.00000    
      5694 BUTA     120      BUTA     H7       HDA2A    0.900000E-01   1.00800           0   0.00000       0.00000    
      5695 BUTA     120      BUTA     H8       DUMH      0.00000       1.00800           0   0.00000       0.00000    
      5696 BUTA     120      BUTA     H9       DUMH      0.00000       1.00800           0   0.00000       0.00000    
      5697 BUTA     120      BUTA     LPO11    LPD     -0.380000       0.00000          -1   0.00000       0.00000    
      5698 BUTA     120      BUTA     LPO12    LPD     -0.380000       0.00000          -1   0.00000       0.00000    
      5699 BUTA     120      BUTA     LPO21    LPD     -0.380000       0.00000          -1   0.00000       0.00000    
      5700 BUTA     120      BUTA     LPO22    LPD     -0.380000       0.00000          -1   0.00000       0.00000    
      5701 BUTA     121      BUTA     C1       CD33A     2.06290       11.6110           0  -1.81190       1.18670    
      5702 BUTA     121      BUTA     DC1      DRUD     -2.33590      0.400000           0   0.00000       0.00000    
      5703 BUTA     121      BUTA     C2       CD32A     2.01970       11.6110           0  -1.59660       1.16930    
      5704 BUTA     121      BUTA     DC2      DRUD     -2.19270      0.400000           0   0.00000       0.00000    
      5705 BUTA     121      BUTA     C3       CD32A     1.90870       11.6110           0  -1.59660       1.16930    
      5706 BUTA     121      BUTA     DC3      DRUD     -2.19270      0.400000           0   0.00000       0.00000    
      5707 BUTA     121      BUTA     C4       CD2O2A    2.36920       11.6110           0  -1.01600      0.899000    
      5708 BUTA     121      BUTA     DC4      DRUD     -1.74920      0.400000           0   0.00000       0.00000    
      5709 BUTA     121      BUTA     O1       OD2C2A    1.45090       15.5994           0 -0.699000       2.39900    
      5710 BUTA     121      BUTA     DO1      DRUD     -1.45090      0.400000           0   0.00000       0.00000    
      5711 BUTA     121      BUTA     O2       OD2C2A    1.45090       15.5994           0 -0.699000       2.39900    
      5712 BUTA     121      BUTA     DO2      DRUD     -1.45090      0.400000           0   0.00000       0.00000    
      5713 BUTA     121      BUTA     H1       HDA3A    0.900000E-01   1.00800           0   0.00000       0.00000    
      5714 BUTA     121      BUTA     H2       HDA3A    0.900000E-01   1.00800           0   0.00000       0.00000    
      5715 BUTA     121      BUTA     H3       HDA3A    0.900000E-01   1.00800           0   0.00000       0.00000    
      5716 BUTA     121      BUTA     H4       HDA2A    0.900000E-01   1.00800           0   0.00000       0.00000    
      5717 BUTA     121      BUTA     H5       HDA2A    0.900000E-01   1.00800           0   0.00000       0.00000    
      5718 BUTA     121      BUTA     H6       HDA2A    0.900000E-01   1.00800           0   0.00000       0.00000    
      5719 BUTA     121      BUTA     H7       HDA2A    0.900000E-01   1.00800           0   0.00000       0.00000    
      5720 BUTA     121      BUTA     H8       DUMH      0.00000       1.00800           0   0.00000       0.00000    
      5721 BUTA     121      BUTA     H9       DUMH      0.00000       1.00800           0   0.00000       0.00000    
      5722 BUTA     121      BUTA     LPO11    LPD     -0.380000       0.00000          -1   0.00000       0.00000    
      5723 BUTA     121      BUTA     LPO12    LPD     -0.380000       0.00000          -1   0.00000       0.00000    
      5724 BUTA     121      BUTA     LPO21    LPD     -0.380000       0.00000          -1   0.00000       0.00000    
      5725 BUTA     121      BUTA     LPO22    LPD     -0.380000       0.00000          -1   0.00000       0.00000    
      5726 BUTA     122      BUTA     C1       CD33A     2.06290       11.6110           0  -1.81190       1.18670    
      5727 BUTA     122      BUTA     DC1      DRUD     -2.33590      0.400000           0   0.00000       0.00000    
      5728 BUTA     122      BUTA     C2       CD32A     2.01970       11.6110           0  -1.59660       1.16930    
      5729 BUTA     122      BUTA     DC2      DRUD     -2.19270      0.400000           0   0.00000       0.00000    
      5730 BUTA     122      BUTA     C3       CD32A     1.90870       11.6110           0  -1.59660       1.16930    
      5731 BUTA     122      BUTA     DC3      DRUD     -2.19270      0.400000           0   0.00000       0.00000    
      5732 BUTA     122      BUTA     C4       CD2O2A    2.36920       11.6110           0  -1.01600      0.899000    
      5733 BUTA     122      BUTA     DC4      DRUD     -1.74920      0.400000           0   0.00000       0.00000    
      5734 BUTA     122      BUTA     O1       OD2C2A    1.45090       15.5994           0 -0.699000       2.39900    
      5735 BUTA     122      BUTA     DO1      DRUD     -1.45090      0.400000           0   0.00000       0.00000    
      5736 BUTA     122      BUTA     O2       OD2C2A    1.45090       15.5994           0 -0.699000       2.39900    
      5737 BUTA     122      BUTA     DO2      DRUD     -1.45090      0.400000           0   0.00000       0.00000    
      5738 BUTA     122      BUTA     H1       HDA3A    0.900000E-01   1.00800           0   0.00000       0.00000    
      5739 BUTA     122      BUTA     H2       HDA3A    0.900000E-01   1.00800           0   0.00000       0.00000    
      5740 BUTA     122      BUTA     H3       HDA3A    0.900000E-01   1.00800           0   0.00000       0.00000    
      5741 BUTA     122      BUTA     H4       HDA2A    0.900000E-01   1.00800           0   0.00000       0.00000    
      5742 BUTA     122      BUTA     H5       HDA2A    0.900000E-01   1.00800           0   0.00000       0.00000    
      5743 BUTA     122      BUTA     H6       HDA2A    0.900000E-01   1.00800           0   0.00000       0.00000    
      5744 BUTA     122      BUTA     H7       HDA2A    0.900000E-01   1.00800           0   0.00000       0.00000    
      5745 BUTA     122      BUTA     H8       DUMH      0.00000       1.00800           0   0.00000       0.00000    
      5746 BUTA     122      BUTA     H9       DUMH      0.00000       1.00800           0   0.00000       0.00000    
      5747 BUTA     122      BUTA     LPO11    LPD     -0.380000       0.00000          -1   0.00000       0.00000    
      5748 BUTA     122      BUTA     LPO12    LPD     -0.380000       0.00000          -1   0.00000       0.00000    
      5749 BUTA     122      BUTA     LPO21    LPD     -0.380000       0.00000          -1   0.00000       0.00000    
      5750 BUTA     122      BUTA     LPO22    LPD     -0.380000       0.00000          -1   0.00000       0.00000    
      5751 BUTA     123      BUTA     C1       CD33A     2.06290       11.6110           0  -1.81190       1.18670    
      5752 BUTA     123      BUTA     DC1      DRUD     -2.33590      0.400000           0   0.00000       0.00000    
      5753 BUTA     123      BUTA     C2       CD32A     2.01970       11.6110           0  -1.59660       1.16930    
      5754 BUTA     123      BUTA     DC2      DRUD     -2.19270      0.400000           0   0.00000       0.00000    
      5755 BUTA     123      BUTA     C3       CD32A     1.90870       11.6110           0  -1.59660       1.16930    
      5756 BUTA     123      BUTA     DC3      DRUD     -2.19270      0.400000           0   0.00000       0.00000    
      5757 BUTA     123      BUTA     C4       CD2O2A    2.36920       11.6110           0  -1.01600      0.899000    
      5758 BUTA     123      BUTA     DC4      DRUD     -1.74920      0.400000           0   0.00000       0.00000    
      5759 BUTA     123      BUTA     O1       OD2C2A    1.45090       15.5994           0 -0.699000       2.39900    
      5760 BUTA     123      BUTA     DO1      DRUD     -1.45090      0.400000           0   0.00000       0.00000    
      5761 BUTA     123      BUTA     O2       OD2C2A    1.45090       15.5994           0 -0.699000       2.39900    
      5762 BUTA     123      BUTA     DO2      DRUD     -1.45090      0.400000           0   0.00000       0.00000    
      5763 BUTA     123      BUTA     H1       HDA3A    0.900000E-01   1.00800           0   0.00000       0.00000    
      5764 BUTA     123      BUTA     H2       HDA3A    0.900000E-01   1.00800           0   0.00000       0.00000    
      5765 BUTA     123      BUTA     H3       HDA3A    0.900000E-01   1.00800           0   0.00000       0.00000    
      5766 BUTA     123      BUTA     H4       HDA2A    0.900000E-01   1.00800           0   0.00000       0.00000    
      5767 BUTA     123      BUTA     H5       HDA2A    0.900000E-01   1.00800           0   0.00000       0.00000    
      5768 BUTA     123      BUTA     H6       HDA2A    0.900000E-01   1.00800           0   0.00000       0.00000    
      5769 BUTA     123      BUTA     H7       HDA2A    0.900000E-01   1.00800           0   0.00000       0.00000    
      5770 BUTA     123      BUTA     H8       DUMH      0.00000       1.00800           0   0.00000       0.00000    
      5771 BUTA     123      BUTA     H9       DUMH      0.00000       1.00800           0   0.00000       0.00000    
      5772 BUTA     123      BUTA     LPO11    LPD     -0.380000       0.00000          -1   0.00000       0.00000    
      5773 BUTA     123      BUTA     LPO12    LPD     -0.380000       0.00000          -1   0.00000       0.00000    
      5774 BUTA     123      BUTA     LPO21    LPD     -0.380000       0.00000          -1   0.00000       0.00000    
      5775 BUTA     123      BUTA     LPO22    LPD     -0.380000       0.00000          -1   0.00000       0.00000    
      5776 BUTA     124      BUTA     C1       CD33A     2.06290       11.6110           0  -1.81190       1.18670    
      5777 BUTA     124      BUTA     DC1      DRUD     -2.33590      0.400000           0   0.00000       0.00000    
      5778 BUTA     124      BUTA     C2       CD32A     2.01970       11.6110           0  -1.59660       1.16930    
      5779 BUTA     124      BUTA     DC2      DRUD     -2.19270      0.400000           0   0.00000       0.00000    
      5780 BUTA     124      BUTA     C3       CD32A     1.90870       11.6110           0  -1.59660       1.16930    
      5781 BUTA     124      BUTA     DC3      DRUD     -2.19270      0.400000           0   0.00000       0.00000    
      5782 BUTA     124      BUTA     C4       CD2O2A    2.36920       11.6110           0  -1.01600      0.899000    
      5783 BUTA     124      BUTA     DC4      DRUD     -1.74920      0.400000           0   0.00000       0.00000    
      5784 BUTA     124      BUTA     O1       OD2C2A    1.45090       15.5994           0 -0.699000       2.39900    
      5785 BUTA     124      BUTA     DO1      DRUD     -1.45090      0.400000           0   0.00000       0.00000    
      5786 BUTA     124      BUTA     O2       OD2C2A    1.45090       15.5994           0 -0.699000       2.39900    
      5787 BUTA     124      BUTA     DO2      DRUD     -1.45090      0.400000           0   0.00000       0.00000    
      5788 BUTA     124      BUTA     H1       HDA3A    0.900000E-01   1.00800           0   0.00000       0.00000    
      5789 BUTA     124      BUTA     H2       HDA3A    0.900000E-01   1.00800           0   0.00000       0.00000    
      5790 BUTA     124      BUTA     H3       HDA3A    0.900000E-01   1.00800           0   0.00000       0.00000    
      5791 BUTA     124      BUTA     H4       HDA2A    0.900000E-01   1.00800           0   0.00000       0.00000    
      5792 BUTA     124      BUTA     H5       HDA2A    0.900000E-01   1.00800           0   0.00000       0.00000    
      5793 BUTA     124      BUTA     H6       HDA2A    0.900000E-01   1.00800           0   0.00000       0.00000    
      5794 BUTA     124      BUTA     H7       HDA2A    0.900000E-01   1.00800           0   0.00000       0.00000    
      5795 BUTA     124      BUTA     H8       DUMH      0.00000       1.00800           0   0.00000       0.00000    
      5796 BUTA     124      BUTA     H9       DUMH      0.00000       1.00800           0   0.00000       0.00000    
      5797 BUTA     124      BUTA     LPO11    LPD     -0.380000       0.00000          -1   0.00000       0.00000    
      5798 BUTA     124      BUTA     LPO12    LPD     -0.380000       0.00000          -1   0.00000       0.00000    
      5799 BUTA     124      BUTA     LPO21    LPD     -0.380000       0.00000          -1   0.00000       0.00000    
      5800 BUTA     124      BUTA     LPO22    LPD     -0.380000       0.00000          -1   0.00000       0.00000    
      5801 BUTA     125      BUTA     C1       CD33A     2.06290       11.6110           0  -1.81190       1.18670    
      5802 BUTA     125      BUTA     DC1      DRUD     -2.33590      0.400000           0   0.00000       0.00000    
      5803 BUTA     125      BUTA     C2       CD32A     2.01970       11.6110           0  -1.59660       1.16930    
      5804 BUTA     125      BUTA     DC2      DRUD     -2.19270      0.400000           0   0.00000       0.00000    
      5805 BUTA     125      BUTA     C3       CD32A     1.90870       11.6110           0  -1.59660       1.16930    
      5806 BUTA     125      BUTA     DC3      DRUD     -2.19270      0.400000           0   0.00000       0.00000    
      5807 BUTA     125      BUTA     C4       CD2O2A    2.36920       11.6110           0  -1.01600      0.899000    
      5808 BUTA     125      BUTA     DC4      DRUD     -1.74920      0.400000           0   0.00000       0.00000    
      5809 BUTA     125      BUTA     O1       OD2C2A    1.45090       15.5994           0 -0.699000       2.39900    
      5810 BUTA     125      BUTA     DO1      DRUD     -1.45090      0.400000           0   0.00000       0.00000    
      5811 BUTA     125      BUTA     O2       OD2C2A    1.45090       15.5994           0 -0.699000       2.39900    
      5812 BUTA     125      BUTA     DO2      DRUD     -1.45090      0.400000           0   0.00000       0.00000    
      5813 BUTA     125      BUTA     H1       HDA3A    0.900000E-01   1.00800           0   0.00000       0.00000    
      5814 BUTA     125      BUTA     H2       HDA3A    0.900000E-01   1.00800           0   0.00000       0.00000    
      5815 BUTA     125      BUTA     H3       HDA3A    0.900000E-01   1.00800           0   0.00000       0.00000    
      5816 BUTA     125      BUTA     H4       HDA2A    0.900000E-01   1.00800           0   0.00000       0.00000    
      5817 BUTA     125      BUTA     H5       HDA2A    0.900000E-01   1.00800           0   0.00000       0.00000    
      5818 BUTA     125      BUTA     H6       HDA2A    0.900000E-01   1.00800           0   0.00000       0.00000    
      5819 BUTA     125      BUTA     H7       HDA2A    0.900000E-01   1.00800           0   0.00000       0.00000    
      5820 BUTA     125      BUTA     H8       DUMH      0.00000       1.00800           0   0.00000       0.00000    
      5821 BUTA     125      BUTA     H9       DUMH      0.00000       1.00800           0   0.00000       0.00000    
      5822 BUTA     125      BUTA     LPO11    LPD     -0.380000       0.00000          -1   0.00000       0.00000    
      5823 BUTA     125      BUTA     LPO12    LPD     -0.380000       0.00000          -1   0.00000       0.00000    
      5824 BUTA     125      BUTA     LPO21    LPD     -0.380000       0.00000          -1   0.00000       0.00000    
      5825 BUTA     125      BUTA     LPO22    LPD     -0.380000       0.00000          -1   0.00000       0.00000    
      5826 BUTA     126      BUTA     C1       CD33A     2.06290       11.6110           0  -1.81190       1.18670    
      5827 BUTA     126      BUTA     DC1      DRUD     -2.33590      0.400000           0   0.00000       0.00000    
      5828 BUTA     126      BUTA     C2       CD32A     2.01970       11.6110           0  -1.59660       1.16930    
      5829 BUTA     126      BUTA     DC2      DRUD     -2.19270      0.400000           0   0.00000       0.00000    
      5830 BUTA     126      BUTA     C3       CD32A     1.90870       11.6110           0  -1.59660       1.16930    
      5831 BUTA     126      BUTA     DC3      DRUD     -2.19270      0.400000           0   0.00000       0.00000    
      5832 BUTA     126      BUTA     C4       CD2O2A    2.36920       11.6110           0  -1.01600      0.899000    
      5833 BUTA     126      BUTA     DC4      DRUD     -1.74920      0.400000           0   0.00000       0.00000    
      5834 BUTA     126      BUTA     O1       OD2C2A    1.45090       15.5994           0 -0.699000       2.39900    
      5835 BUTA     126      BUTA     DO1      DRUD     -1.45090      0.400000           0   0.00000       0.00000    
      5836 BUTA     126      BUTA     O2       OD2C2A    1.45090       15.5994           0 -0.699000       2.39900    
      5837 BUTA     126      BUTA     DO2      DRUD     -1.45090      0.400000           0   0.00000       0.00000    
      5838 BUTA     126      BUTA     H1       HDA3A    0.900000E-01   1.00800           0   0.00000       0.00000    
      5839 BUTA     126      BUTA     H2       HDA3A    0.900000E-01   1.00800           0   0.00000       0.00000    
      5840 BUTA     126      BUTA     H3       HDA3A    0.900000E-01   1.00800           0   0.00000       0.00000    
      5841 BUTA     126      BUTA     H4       HDA2A    0.900000E-01   1.00800           0   0.00000       0.00000    
      5842 BUTA     126      BUTA     H5       HDA2A    0.900000E-01   1.00800           0   0.00000       0.00000    
      5843 BUTA     126      BUTA     H6       HDA2A    0.900000E-01   1.00800           0   0.00000       0.00000    
      5844 BUTA     126      BUTA     H7       HDA2A    0.900000E-01   1.00800           0   0.00000       0.00000    
      5845 BUTA     126      BUTA     H8       DUMH      0.00000       1.00800           0   0.00000       0.00000    
      5846 BUTA     126      BUTA     H9       DUMH      0.00000       1.00800           0   0.00000       0.00000    
      5847 BUTA     126      BUTA     LPO11    LPD     -0.380000       0.00000          -1   0.00000       0.00000    
      5848 BUTA     126      BUTA     LPO12    LPD     -0.380000       0.00000          -1   0.00000       0.00000    
      5849 BUTA     126      BUTA     LPO21    LPD     -0.380000       0.00000          -1   0.00000       0.00000    
      5850 BUTA     126      BUTA     LPO22    LPD     -0.380000       0.00000          -1   0.00000       0.00000    
      5851 BUTA     127      BUTA     C1       CD33A     2.06290       11.6110           0  -1.81190       1.18670    
      5852 BUTA     127      BUTA     DC1      DRUD     -2.33590      0.400000           0   0.00000       0.00000    
      5853 BUTA     127      BUTA     C2       CD32A     2.01970       11.6110           0  -1.59660       1.16930    
      5854 BUTA     127      BUTA     DC2      DRUD     -2.19270      0.400000           0   0.00000       0.00000    
      5855 BUTA     127      BUTA     C3       CD32A     1.90870       11.6110           0  -1.59660       1.16930    
      5856 BUTA     127      BUTA     DC3      DRUD     -2.19270      0.400000           0   0.00000       0.00000    
      5857 BUTA     127      BUTA     C4       CD2O2A    2.36920       11.6110           0  -1.01600      0.899000    
      5858 BUTA     127      BUTA     DC4      DRUD     -1.74920      0.400000           0   0.00000       0.00000    
      5859 BUTA     127      BUTA     O1       OD2C2A    1.45090       15.5994           0 -0.699000       2.39900    
      5860 BUTA     127      BUTA     DO1      DRUD     -1.45090      0.400000           0   0.00000       0.00000    
      5861 BUTA     127      BUTA     O2       OD2C2A    1.45090       15.5994           0 -0.699000       2.39900    
      5862 BUTA     127      BUTA     DO2      DRUD     -1.45090      0.400000           0   0.00000       0.00000    
      5863 BUTA     127      BUTA     H1       HDA3A    0.900000E-01   1.00800           0   0.00000       0.00000    
      5864 BUTA     127      BUTA     H2       HDA3A    0.900000E-01   1.00800           0   0.00000       0.00000    
      5865 BUTA     127      BUTA     H3       HDA3A    0.900000E-01   1.00800           0   0.00000       0.00000    
      5866 BUTA     127      BUTA     H4       HDA2A    0.900000E-01   1.00800           0   0.00000       0.00000    
      5867 BUTA     127      BUTA     H5       HDA2A    0.900000E-01   1.00800           0   0.00000       0.00000    
      5868 BUTA     127      BUTA     H6       HDA2A    0.900000E-01   1.00800           0   0.00000       0.00000    
      5869 BUTA     127      BUTA     H7       HDA2A    0.900000E-01   1.00800           0   0.00000       0.00000    
      5870 BUTA     127      BUTA     H8       DUMH      0.00000       1.00800           0   0.00000       0.00000    
      5871 BUTA     127      BUTA     H9       DUMH      0.00000       1.00800           0   0.00000       0.00000    
      5872 BUTA     127      BUTA     LPO11    LPD     -0.380000       0.00000          -1   0.00000       0.00000    
      5873 BUTA     127      BUTA     LPO12    LPD     -0.380000       0.00000          -1   0.00000       0.00000    
      5874 BUTA     127      BUTA     LPO21    LPD     -0.380000       0.00000          -1   0.00000       0.00000    
      5875 BUTA     127      BUTA     LPO22    LPD     -0.380000       0.00000          -1   0.00000       0.00000    
      5876 BUTA     128      BUTA     C1       CD33A     2.06290       11.6110           0  -1.81190       1.18670    
      5877 BUTA     128      BUTA     DC1      DRUD     -2.33590      0.400000           0   0.00000       0.00000    
      5878 BUTA     128      BUTA     C2       CD32A     2.01970       11.6110           0  -1.59660       1.16930    
      5879 BUTA     128      BUTA     DC2      DRUD     -2.19270      0.400000           0   0.00000       0.00000    
      5880 BUTA     128      BUTA     C3       CD32A     1.90870       11.6110           0  -1.59660       1.16930    
      5881 BUTA     128      BUTA     DC3      DRUD     -2.19270      0.400000           0   0.00000       0.00000    
      5882 BUTA     128      BUTA     C4       CD2O2A    2.36920       11.6110           0  -1.01600      0.899000    
      5883 BUTA     128      BUTA     DC4      DRUD     -1.74920      0.400000           0   0.00000       0.00000    
      5884 BUTA     128      BUTA     O1       OD2C2A    1.45090       15.5994           0 -0.699000       2.39900    
      5885 BUTA     128      BUTA     DO1      DRUD     -1.45090      0.400000           0   0.00000       0.00000    
      5886 BUTA     128      BUTA     O2       OD2C2A    1.45090       15.5994           0 -0.699000       2.39900    
      5887 BUTA     128      BUTA     DO2      DRUD     -1.45090      0.400000           0   0.00000       0.00000    
      5888 BUTA     128      BUTA     H1       HDA3A    0.900000E-01   1.00800           0   0.00000       0.00000    
      5889 BUTA     128      BUTA     H2       HDA3A    0.900000E-01   1.00800           0   0.00000       0.00000    
      5890 BUTA     128      BUTA     H3       HDA3A    0.900000E-01   1.00800           0   0.00000       0.00000    
      5891 BUTA     128      BUTA     H4       HDA2A    0.900000E-01   1.00800           0   0.00000       0.00000    
      5892 BUTA     128      BUTA     H5       HDA2A    0.900000E-01   1.00800           0   0.00000       0.00000    
      5893 BUTA     128      BUTA     H6       HDA2A    0.900000E-01   1.00800           0   0.00000       0.00000    
      5894 BUTA     128      BUTA     H7       HDA2A    0.900000E-01   1.00800           0   0.00000       0.00000    
      5895 BUTA     128      BUTA     H8       DUMH      0.00000       1.00800           0   0.00000       0.00000    
      5896 BUTA     128      BUTA     H9       DUMH      0.00000       1.00800           0   0.00000       0.00000    
      5897 BUTA     128      BUTA     LPO11    LPD     -0.380000       0.00000          -1   0.00000       0.00000    
      5898 BUTA     128      BUTA     LPO12    LPD     -0.380000       0.00000          -1   0.00000       0.00000    
      5899 BUTA     128      BUTA     LPO21    LPD     -0.380000       0.00000          -1   0.00000       0.00000    
      5900 BUTA     128      BUTA     LPO22    LPD     -0.380000       0.00000          -1   0.00000       0.00000    
      5901 BUTA     129      BUTA     C1       CD33A     2.06290       11.6110           0  -1.81190       1.18670    
      5902 BUTA     129      BUTA     DC1      DRUD     -2.33590      0.400000           0   0.00000       0.00000    
      5903 BUTA     129      BUTA     C2       CD32A     2.01970       11.6110           0  -1.59660       1.16930    
      5904 BUTA     129      BUTA     DC2      DRUD     -2.19270      0.400000           0   0.00000       0.00000    
      5905 BUTA     129      BUTA     C3       CD32A     1.90870       11.6110           0  -1.59660       1.16930    
      5906 BUTA     129      BUTA     DC3      DRUD     -2.19270      0.400000           0   0.00000       0.00000    
      5907 BUTA     129      BUTA     C4       CD2O2A    2.36920       11.6110           0  -1.01600      0.899000    
      5908 BUTA     129      BUTA     DC4      DRUD     -1.74920      0.400000           0   0.00000       0.00000    
      5909 BUTA     129      BUTA     O1       OD2C2A    1.45090       15.5994           0 -0.699000       2.39900    
      5910 BUTA     129      BUTA     DO1      DRUD     -1.45090      0.400000           0   0.00000       0.00000    
      5911 BUTA     129      BUTA     O2       OD2C2A    1.45090       15.5994           0 -0.699000       2.39900    
      5912 BUTA     129      BUTA     DO2      DRUD     -1.45090      0.400000           0   0.00000       0.00000    
      5913 BUTA     129      BUTA     H1       HDA3A    0.900000E-01   1.00800           0   0.00000       0.00000    
      5914 BUTA     129      BUTA     H2       HDA3A    0.900000E-01   1.00800           0   0.00000       0.00000    
      5915 BUTA     129      BUTA     H3       HDA3A    0.900000E-01   1.00800           0   0.00000       0.00000    
      5916 BUTA     129      BUTA     H4       HDA2A    0.900000E-01   1.00800           0   0.00000       0.00000    
      5917 BUTA     129      BUTA     H5       HDA2A    0.900000E-01   1.00800           0   0.00000       0.00000    
      5918 BUTA     129      BUTA     H6       HDA2A    0.900000E-01   1.00800           0   0.00000       0.00000    
      5919 BUTA     129      BUTA     H7       HDA2A    0.900000E-01   1.00800           0   0.00000       0.00000    
      5920 BUTA     129      BUTA     H8       DUMH      0.00000       1.00800           0   0.00000       0.00000    
      5921 BUTA     129      BUTA     H9       DUMH      0.00000       1.00800           0   0.00000       0.00000    
      5922 BUTA     129      BUTA     LPO11    LPD     -0.380000       0.00000          -1   0.00000       0.00000    
      5923 BUTA     129      BUTA     LPO12    LPD     -0.380000       0.00000          -1   0.00000       0.00000    
      5924 BUTA     129      BUTA     LPO21    LPD     -0.380000       0.00000          -1   0.00000       0.00000    
      5925 BUTA     129      BUTA     LPO22    LPD     -0.380000       0.00000          -1   0.00000       0.00000    
      5926 BUTA     130      BUTA     C1       CD33A     2.06290       11.6110           0  -1.81190       1.18670    
      5927 BUTA     130      BUTA     DC1      DRUD     -2.33590      0.400000           0   0.00000       0.00000    
      5928 BUTA     130      BUTA     C2       CD32A     2.01970       11.6110           0  -1.59660       1.16930    
      5929 BUTA     130      BUTA     DC2      DRUD     -2.19270      0.400000           0   0.00000       0.00000    
      5930 BUTA     130      BUTA     C3       CD32A     1.90870       11.6110           0  -1.59660       1.16930    
      5931 BUTA     130      BUTA     DC3      DRUD     -2.19270      0.400000           0   0.00000       0.00000    
      5932 BUTA     130      BUTA     C4       CD2O2A    2.36920       11.6110           0  -1.01600      0.899000    
      5933 BUTA     130      BUTA     DC4      DRUD     -1.74920      0.400000           0   0.00000       0.00000    
      5934 BUTA     130      BUTA     O1       OD2C2A    1.45090       15.5994           0 -0.699000       2.39900    
      5935 BUTA     130      BUTA     DO1      DRUD     -1.45090      0.400000           0   0.00000       0.00000    
      5936 BUTA     130      BUTA     O2       OD2C2A    1.45090       15.5994           0 -0.699000       2.39900    
      5937 BUTA     130      BUTA     DO2      DRUD     -1.45090      0.400000           0   0.00000       0.00000    
      5938 BUTA     130      BUTA     H1       HDA3A    0.900000E-01   1.00800           0   0.00000       0.00000    
      5939 BUTA     130      BUTA     H2       HDA3A    0.900000E-01   1.00800           0   0.00000       0.00000    
      5940 BUTA     130      BUTA     H3       HDA3A    0.900000E-01   1.00800           0   0.00000       0.00000    
      5941 BUTA     130      BUTA     H4       HDA2A    0.900000E-01   1.00800           0   0.00000       0.00000    
      5942 BUTA     130      BUTA     H5       HDA2A    0.900000E-01   1.00800           0   0.00000       0.00000    
      5943 BUTA     130      BUTA     H6       HDA2A    0.900000E-01   1.00800           0   0.00000       0.00000    
      5944 BUTA     130      BUTA     H7       HDA2A    0.900000E-01   1.00800           0   0.00000       0.00000    
      5945 BUTA     130      BUTA     H8       DUMH      0.00000       1.00800           0   0.00000       0.00000    
      5946 BUTA     130      BUTA     H9       DUMH      0.00000       1.00800           0   0.00000       0.00000    
      5947 BUTA     130      BUTA     LPO11    LPD     -0.380000       0.00000          -1   0.00000       0.00000    
      5948 BUTA     130      BUTA     LPO12    LPD     -0.380000       0.00000          -1   0.00000       0.00000    
      5949 BUTA     130      BUTA     LPO21    LPD     -0.380000       0.00000          -1   0.00000       0.00000    
      5950 BUTA     130      BUTA     LPO22    LPD     -0.380000       0.00000          -1   0.00000       0.00000    
      5951 BUTA     131      BUTA     C1       CD33A     2.06290       11.6110           0  -1.81190       1.18670    
      5952 BUTA     131      BUTA     DC1      DRUD     -2.33590      0.400000           0   0.00000       0.00000    
      5953 BUTA     131      BUTA     C2       CD32A     2.01970       11.6110           0  -1.59660       1.16930    
      5954 BUTA     131      BUTA     DC2      DRUD     -2.19270      0.400000           0   0.00000       0.00000    
      5955 BUTA     131      BUTA     C3       CD32A     1.90870       11.6110           0  -1.59660       1.16930    
      5956 BUTA     131      BUTA     DC3      DRUD     -2.19270      0.400000           0   0.00000       0.00000    
      5957 BUTA     131      BUTA     C4       CD2O2A    2.36920       11.6110           0  -1.01600      0.899000    
      5958 BUTA     131      BUTA     DC4      DRUD     -1.74920      0.400000           0   0.00000       0.00000    
      5959 BUTA     131      BUTA     O1       OD2C2A    1.45090       15.5994           0 -0.699000       2.39900    
      5960 BUTA     131      BUTA     DO1      DRUD     -1.45090      0.400000           0   0.00000       0.00000    
      5961 BUTA     131      BUTA     O2       OD2C2A    1.45090       15.5994           0 -0.699000       2.39900    
      5962 BUTA     131      BUTA     DO2      DRUD     -1.45090      0.400000           0   0.00000       0.00000    
      5963 BUTA     131      BUTA     H1       HDA3A    0.900000E-01   1.00800           0   0.00000       0.00000    
      5964 BUTA     131      BUTA     H2       HDA3A    0.900000E-01   1.00800           0   0.00000       0.00000    
      5965 BUTA     131      BUTA     H3       HDA3A    0.900000E-01   1.00800           0   0.00000       0.00000    
      5966 BUTA     131      BUTA     H4       HDA2A    0.900000E-01   1.00800           0   0.00000       0.00000    
      5967 BUTA     131      BUTA     H5       HDA2A    0.900000E-01   1.00800           0   0.00000       0.00000    
      5968 BUTA     131      BUTA     H6       HDA2A    0.900000E-01   1.00800           0   0.00000       0.00000    
      5969 BUTA     131      BUTA     H7       HDA2A    0.900000E-01   1.00800           0   0.00000       0.00000    
      5970 BUTA     131      BUTA     H8       DUMH      0.00000       1.00800           0   0.00000       0.00000    
      5971 BUTA     131      BUTA     H9       DUMH      0.00000       1.00800           0   0.00000       0.00000    
      5972 BUTA     131      BUTA     LPO11    LPD     -0.380000       0.00000          -1   0.00000       0.00000    
      5973 BUTA     131      BUTA     LPO12    LPD     -0.380000       0.00000          -1   0.00000       0.00000    
      5974 BUTA     131      BUTA     LPO21    LPD     -0.380000       0.00000          -1   0.00000       0.00000    
      5975 BUTA     131      BUTA     LPO22    LPD     -0.380000       0.00000          -1   0.00000       0.00000    
      5976 BUTA     132      BUTA     C1       CD33A     2.06290       11.6110           0  -1.81190       1.18670    
      5977 BUTA     132      BUTA     DC1      DRUD     -2.33590      0.400000           0   0.00000       0.00000    
      5978 BUTA     132      BUTA     C2       CD32A     2.01970       11.6110           0  -1.59660       1.16930    
      5979 BUTA     132      BUTA     DC2      DRUD     -2.19270      0.400000           0   0.00000       0.00000    
      5980 BUTA     132      BUTA     C3       CD32A     1.90870       11.6110           0  -1.59660       1.16930    
      5981 BUTA     132      BUTA     DC3      DRUD     -2.19270      0.400000           0   0.00000       0.00000    
      5982 BUTA     132      BUTA     C4       CD2O2A    2.36920       11.6110           0  -1.01600      0.899000    
      5983 BUTA     132      BUTA     DC4      DRUD     -1.74920      0.400000           0   0.00000       0.00000    
      5984 BUTA     132      BUTA     O1       OD2C2A    1.45090       15.5994           0 -0.699000       2.39900    
      5985 BUTA     132      BUTA     DO1      DRUD     -1.45090      0.400000           0   0.00000       0.00000    
      5986 BUTA     132      BUTA     O2       OD2C2A    1.45090       15.5994           0 -0.699000       2.39900    
      5987 BUTA     132      BUTA     DO2      DRUD     -1.45090      0.400000           0   0.00000       0.00000    
      5988 BUTA     132      BUTA     H1       HDA3A    0.900000E-01   1.00800           0   0.00000       0.00000    
      5989 BUTA     132      BUTA     H2       HDA3A    0.900000E-01   1.00800           0   0.00000       0.00000    
      5990 BUTA     132      BUTA     H3       HDA3A    0.900000E-01   1.00800           0   0.00000       0.00000    
      5991 BUTA     132      BUTA     H4       HDA2A    0.900000E-01   1.00800           0   0.00000       0.00000    
      5992 BUTA     132      BUTA     H5       HDA2A    0.900000E-01   1.00800           0   0.00000       0.00000    
      5993 BUTA     132      BUTA     H6       HDA2A    0.900000E-01   1.00800           0   0.00000       0.00000    
      5994 BUTA     132      BUTA     H7       HDA2A    0.900000E-01   1.00800           0   0.00000       0.00000    
      5995 BUTA     132      BUTA     H8       DUMH      0.00000       1.00800           0   0.00000       0.00000    
      5996 BUTA     132      BUTA     H9       DUMH      0.00000       1.00800           0   0.00000       0.00000    
      5997 BUTA     132      BUTA     LPO11    LPD     -0.380000       0.00000          -1   0.00000       0.00000    
      5998 BUTA     132      BUTA     LPO12    LPD     -0.380000       0.00000          -1   0.00000       0.00000    
      5999 BUTA     132      BUTA     LPO21    LPD     -0.380000       0.00000          -1   0.00000       0.00000    
      6000 BUTA     132      BUTA     LPO22    LPD     -0.380000       0.00000          -1   0.00000       0.00000    
      6001 BUTA     133      BUTA     C1       CD33A     2.06290       11.6110           0  -1.81190       1.18670    
      6002 BUTA     133      BUTA     DC1      DRUD     -2.33590      0.400000           0   0.00000       0.00000    
      6003 BUTA     133      BUTA     C2       CD32A     2.01970       11.6110           0  -1.59660       1.16930    
      6004 BUTA     133      BUTA     DC2      DRUD     -2.19270      0.400000           0   0.00000       0.00000    
      6005 BUTA     133      BUTA     C3       CD32A     1.90870       11.6110           0  -1.59660       1.16930    
      6006 BUTA     133      BUTA     DC3      DRUD     -2.19270      0.400000           0   0.00000       0.00000    
      6007 BUTA     133      BUTA     C4       CD2O2A    2.36920       11.6110           0  -1.01600      0.899000    
      6008 BUTA     133      BUTA     DC4      DRUD     -1.74920      0.400000           0   0.00000       0.00000    
      6009 BUTA     133      BUTA     O1       OD2C2A    1.45090       15.5994           0 -0.699000       2.39900    
      6010 BUTA     133      BUTA     DO1      DRUD     -1.45090      0.400000           0   0.00000       0.00000    
      6011 BUTA     133      BUTA     O2       OD2C2A    1.45090       15.5994           0 -0.699000       2.39900    
      6012 BUTA     133      BUTA     DO2      DRUD     -1.45090      0.400000           0   0.00000       0.00000    
      6013 BUTA     133      BUTA     H1       HDA3A    0.900000E-01   1.00800           0   0.00000       0.00000    
      6014 BUTA     133      BUTA     H2       HDA3A    0.900000E-01   1.00800           0   0.00000       0.00000    
      6015 BUTA     133      BUTA     H3       HDA3A    0.900000E-01   1.00800           0   0.00000       0.00000    
      6016 BUTA     133      BUTA     H4       HDA2A    0.900000E-01   1.00800           0   0.00000       0.00000    
      6017 BUTA     133      BUTA     H5       HDA2A    0.900000E-01   1.00800           0   0.00000       0.00000    
      6018 BUTA     133      BUTA     H6       HDA2A    0.900000E-01   1.00800           0   0.00000       0.00000    
      6019 BUTA     133      BUTA     H7       HDA2A    0.900000E-01   1.00800           0   0.00000       0.00000    
      6020 BUTA     133      BUTA     H8       DUMH      0.00000       1.00800           0   0.00000       0.00000    
      6021 BUTA     133      BUTA     H9       DUMH      0.00000       1.00800           0   0.00000       0.00000    
      6022 BUTA     133      BUTA     LPO11    LPD     -0.380000       0.00000          -1   0.00000       0.00000    
      6023 BUTA     133      BUTA     LPO12    LPD     -0.380000       0.00000          -1   0.00000       0.00000    
      6024 BUTA     133      BUTA     LPO21    LPD     -0.380000       0.00000          -1   0.00000       0.00000    
      6025 BUTA     133      BUTA     LPO22    LPD     -0.380000       0.00000          -1   0.00000       0.00000    
      6026 BUTA     134      BUTA     C1       CD33A     2.06290       11.6110           0  -1.81190       1.18670    
      6027 BUTA     134      BUTA     DC1      DRUD     -2.33590      0.400000           0   0.00000       0.00000    
      6028 BUTA     134      BUTA     C2       CD32A     2.01970       11.6110           0  -1.59660       1.16930    
      6029 BUTA     134      BUTA     DC2      DRUD     -2.19270      0.400000           0   0.00000       0.00000    
      6030 BUTA     134      BUTA     C3       CD32A     1.90870       11.6110           0  -1.59660       1.16930    
      6031 BUTA     134      BUTA     DC3      DRUD     -2.19270      0.400000           0   0.00000       0.00000    
      6032 BUTA     134      BUTA     C4       CD2O2A    2.36920       11.6110           0  -1.01600      0.899000    
      6033 BUTA     134      BUTA     DC4      DRUD     -1.74920      0.400000           0   0.00000       0.00000    
      6034 BUTA     134      BUTA     O1       OD2C2A    1.45090       15.5994           0 -0.699000       2.39900    
      6035 BUTA     134      BUTA     DO1      DRUD     -1.45090      0.400000           0   0.00000       0.00000    
      6036 BUTA     134      BUTA     O2       OD2C2A    1.45090       15.5994           0 -0.699000       2.39900    
      6037 BUTA     134      BUTA     DO2      DRUD     -1.45090      0.400000           0   0.00000       0.00000    
      6038 BUTA     134      BUTA     H1       HDA3A    0.900000E-01   1.00800           0   0.00000       0.00000    
      6039 BUTA     134      BUTA     H2       HDA3A    0.900000E-01   1.00800           0   0.00000       0.00000    
      6040 BUTA     134      BUTA     H3       HDA3A    0.900000E-01   1.00800           0   0.00000       0.00000    
      6041 BUTA     134      BUTA     H4       HDA2A    0.900000E-01   1.00800           0   0.00000       0.00000    
      6042 BUTA     134      BUTA     H5       HDA2A    0.900000E-01   1.00800           0   0.00000       0.00000    
      6043 BUTA     134      BUTA     H6       HDA2A    0.900000E-01   1.00800           0   0.00000       0.00000    
      6044 BUTA     134      BUTA     H7       HDA2A    0.900000E-01   1.00800           0   0.00000       0.00000    
      6045 BUTA     134      BUTA     H8       DUMH      0.00000       1.00800           0   0.00000       0.00000    
      6046 BUTA     134      BUTA     H9       DUMH      0.00000       1.00800           0   0.00000       0.00000    
      6047 BUTA     134      BUTA     LPO11    LPD     -0.380000       0.00000          -1   0.00000       0.00000    
      6048 BUTA     134      BUTA     LPO12    LPD     -0.380000       0.00000          -1   0.00000       0.00000    
      6049 BUTA     134      BUTA     LPO21    LPD     -0.380000       0.00000          -1   0.00000       0.00000    
      6050 BUTA     134      BUTA     LPO22    LPD     -0.380000       0.00000          -1   0.00000       0.00000    
      6051 BUTA     135      BUTA     C1       CD33A     2.06290       11.6110           0  -1.81190       1.18670    
      6052 BUTA     135      BUTA     DC1      DRUD     -2.33590      0.400000           0   0.00000       0.00000    
      6053 BUTA     135      BUTA     C2       CD32A     2.01970       11.6110           0  -1.59660       1.16930    
      6054 BUTA     135      BUTA     DC2      DRUD     -2.19270      0.400000           0   0.00000       0.00000    
      6055 BUTA     135      BUTA     C3       CD32A     1.90870       11.6110           0  -1.59660       1.16930    
      6056 BUTA     135      BUTA     DC3      DRUD     -2.19270      0.400000           0   0.00000       0.00000    
      6057 BUTA     135      BUTA     C4       CD2O2A    2.36920       11.6110           0  -1.01600      0.899000    
      6058 BUTA     135      BUTA     DC4      DRUD     -1.74920      0.400000           0   0.00000       0.00000    
      6059 BUTA     135      BUTA     O1       OD2C2A    1.45090       15.5994           0 -0.699000       2.39900    
      6060 BUTA     135      BUTA     DO1      DRUD     -1.45090      0.400000           0   0.00000       0.00000    
      6061 BUTA     135      BUTA     O2       OD2C2A    1.45090       15.5994           0 -0.699000       2.39900    
      6062 BUTA     135      BUTA     DO2      DRUD     -1.45090      0.400000           0   0.00000       0.00000    
      6063 BUTA     135      BUTA     H1       HDA3A    0.900000E-01   1.00800           0   0.00000       0.00000    
      6064 BUTA     135      BUTA     H2       HDA3A    0.900000E-01   1.00800           0   0.00000       0.00000    
      6065 BUTA     135      BUTA     H3       HDA3A    0.900000E-01   1.00800           0   0.00000       0.00000    
      6066 BUTA     135      BUTA     H4       HDA2A    0.900000E-01   1.00800           0   0.00000       0.00000    
      6067 BUTA     135      BUTA     H5       HDA2A    0.900000E-01   1.00800           0   0.00000       0.00000    
      6068 BUTA     135      BUTA     H6       HDA2A    0.900000E-01   1.00800           0   0.00000       0.00000    
      6069 BUTA     135      BUTA     H7       HDA2A    0.900000E-01   1.00800           0   0.00000       0.00000    
      6070 BUTA     135      BUTA     H8       DUMH      0.00000       1.00800           0   0.00000       0.00000    
      6071 BUTA     135      BUTA     H9       DUMH      0.00000       1.00800           0   0.00000       0.00000    
      6072 BUTA     135      BUTA     LPO11    LPD     -0.380000       0.00000          -1   0.00000       0.00000    
      6073 BUTA     135      BUTA     LPO12    LPD     -0.380000       0.00000          -1   0.00000       0.00000    
      6074 BUTA     135      BUTA     LPO21    LPD     -0.380000       0.00000          -1   0.00000       0.00000    
      6075 BUTA     135      BUTA     LPO22    LPD     -0.380000       0.00000          -1   0.00000       0.00000    
      6076 IM1      1        IM1      C1       CD33G     1.64330       11.6110           0  -1.08100       1.00000    
      6077 IM1      1        IM1      DC1      DRUD     -1.80430      0.400000           0   0.00000       0.00000    
      6078 IM1      1        IM1      H1       HDA3A    0.940000E-01   1.00800           0   0.00000       0.00000    
      6079 IM1      1        IM1      H2       HDA3A    0.940000E-01   1.00800           0   0.00000       0.00000    
      6080 IM1      1        IM1      H3       HDA3A    0.940000E-01   1.00800           0   0.00000       0.00000    
      6081 IM1      1        IM1      N1       ND2R5A    1.92920       13.6070           0  -1.06300       1.30000    
      6082 IM1      1        IM1      DN1      DRUD     -1.78920      0.400000           0   0.00000       0.00000    
      6083 IM1      1        IM1      C2       CD2R5A    1.66810       11.6110           0  -1.37800       1.30000    
      6084 IM1      1        IM1      DC2      DRUD     -2.03710      0.400000           0   0.00000       0.00000    
      6085 IM1      1        IM1      H4       HDR5A    0.150000       1.00800           0   0.00000       0.00000    
      6086 IM1      1        IM1      C3       CD2R5A    2.22510       11.6110           0  -1.37800       1.30000    
      6087 IM1      1        IM1      DC3      DRUD     -2.03710      0.400000           0   0.00000       0.00000    
      6088 IM1      1        IM1      H5       HDR5A    0.530000E-01   1.00800           0   0.00000       0.00000    
      6089 IM1      1        IM1      C4       CD2R5B    1.73480       11.6110           0 -0.868000       1.30000    
      6090 IM1      1        IM1      DC4      DRUD     -1.61680      0.400000           0   0.00000       0.00000    
      6091 IM1      1        IM1      H6       HDR5B    0.730000E-01   1.00800           0   0.00000       0.00000    
      6092 IM1      1        IM1      N2       ND2R5B    1.59050       13.6070           0 -0.840000       1.00000    
      6093 IM1      1        IM1      DN2      DRUD     -1.59050      0.400000           0   0.00000       0.00000    
      6094 IM1      1        IM1      H7       DUMH      0.00000       1.00800           0   0.00000       0.00000    
      6095 IM1      1        IM1      LPN21    LPD     -0.474000       0.00000          -1   0.00000       0.00000    
      6096 IM1      2        IM1      C1       CD33G     1.64330       11.6110           0  -1.08100       1.00000    
      6097 IM1      2        IM1      DC1      DRUD     -1.80430      0.400000           0   0.00000       0.00000    
      6098 IM1      2        IM1      H1       HDA3A    0.940000E-01   1.00800           0   0.00000       0.00000    
      6099 IM1      2        IM1      H2       HDA3A    0.940000E-01   1.00800           0   0.00000       0.00000    
      6100 IM1      2        IM1      H3       HDA3A    0.940000E-01   1.00800           0   0.00000       0.00000    
      6101 IM1      2        IM1      N1       ND2R5A    1.92920       13.6070           0  -1.06300       1.30000    
      6102 IM1      2        IM1      DN1      DRUD     -1.78920      0.400000           0   0.00000       0.00000    
      6103 IM1      2        IM1      C2       CD2R5A    1.66810       11.6110           0  -1.37800       1.30000    
      6104 IM1      2        IM1      DC2      DRUD     -2.03710      0.400000           0   0.00000       0.00000    
      6105 IM1      2        IM1      H4       HDR5A    0.150000       1.00800           0   0.00000       0.00000    
      6106 IM1      2        IM1      C3       CD2R5A    2.22510       11.6110           0  -1.37800       1.30000    
      6107 IM1      2        IM1      DC3      DRUD     -2.03710      0.400000           0   0.00000       0.00000    
      6108 IM1      2        IM1      H5       HDR5A    0.530000E-01   1.00800           0   0.00000       0.00000    
      6109 IM1      2        IM1      C4       CD2R5B    1.73480       11.6110           0 -0.868000       1.30000    
      6110 IM1      2        IM1      DC4      DRUD     -1.61680      0.400000           0   0.00000       0.00000    
      6111 IM1      2        IM1      H6       HDR5B    0.730000E-01   1.00800           0   0.00000       0.00000    
      6112 IM1      2        IM1      N2       ND2R5B    1.59050       13.6070           0 -0.840000       1.00000    
      6113 IM1      2        IM1      DN2      DRUD     -1.59050      0.400000           0   0.00000       0.00000    
      6114 IM1      2        IM1      H7       DUMH      0.00000       1.00800           0   0.00000       0.00000    
      6115 IM1      2        IM1      LPN21    LPD     -0.474000       0.00000          -1   0.00000       0.00000    
      6116 IM1      3        IM1      C1       CD33G     1.64330       11.6110           0  -1.08100       1.00000    
      6117 IM1      3        IM1      DC1      DRUD     -1.80430      0.400000           0   0.00000       0.00000    
      6118 IM1      3        IM1      H1       HDA3A    0.940000E-01   1.00800           0   0.00000       0.00000    
      6119 IM1      3        IM1      H2       HDA3A    0.940000E-01   1.00800           0   0.00000       0.00000    
      6120 IM1      3        IM1      H3       HDA3A    0.940000E-01   1.00800           0   0.00000       0.00000    
      6121 IM1      3        IM1      N1       ND2R5A    1.92920       13.6070           0  -1.06300       1.30000    
      6122 IM1      3        IM1      DN1      DRUD     -1.78920      0.400000           0   0.00000       0.00000    
      6123 IM1      3        IM1      C2       CD2R5A    1.66810       11.6110           0  -1.37800       1.30000    
      6124 IM1      3        IM1      DC2      DRUD     -2.03710      0.400000           0   0.00000       0.00000    
      6125 IM1      3        IM1      H4       HDR5A    0.150000       1.00800           0   0.00000       0.00000    
      6126 IM1      3        IM1      C3       CD2R5A    2.22510       11.6110           0  -1.37800       1.30000    
      6127 IM1      3        IM1      DC3      DRUD     -2.03710      0.400000           0   0.00000       0.00000    
      6128 IM1      3        IM1      H5       HDR5A    0.530000E-01   1.00800           0   0.00000       0.00000    
      6129 IM1      3        IM1      C4       CD2R5B    1.73480       11.6110           0 -0.868000       1.30000    
      6130 IM1      3        IM1      DC4      DRUD     -1.61680      0.400000           0   0.00000       0.00000    
      6131 IM1      3        IM1      H6       HDR5B    0.730000E-01   1.00800           0   0.00000       0.00000    
      6132 IM1      3        IM1      N2       ND2R5B    1.59050       13.6070           0 -0.840000       1.00000    
      6133 IM1      3        IM1      DN2      DRUD     -1.59050      0.400000           0   0.00000       0.00000    
      6134 IM1      3        IM1      H7       DUMH      0.00000       1.00800           0   0.00000       0.00000    
      6135 IM1      3        IM1      LPN21    LPD     -0.474000       0.00000          -1   0.00000       0.00000    
      6136 IM1      4        IM1      C1       CD33G     1.64330       11.6110           0  -1.08100       1.00000    
      6137 IM1      4        IM1      DC1      DRUD     -1.80430      0.400000           0   0.00000       0.00000    
      6138 IM1      4        IM1      H1       HDA3A    0.940000E-01   1.00800           0   0.00000       0.00000    
      6139 IM1      4        IM1      H2       HDA3A    0.940000E-01   1.00800           0   0.00000       0.00000    
      6140 IM1      4        IM1      H3       HDA3A    0.940000E-01   1.00800           0   0.00000       0.00000    
      6141 IM1      4        IM1      N1       ND2R5A    1.92920       13.6070           0  -1.06300       1.30000    
      6142 IM1      4        IM1      DN1      DRUD     -1.78920      0.400000           0   0.00000       0.00000    
      6143 IM1      4        IM1      C2       CD2R5A    1.66810       11.6110           0  -1.37800       1.30000    
      6144 IM1      4        IM1      DC2      DRUD     -2.03710      0.400000           0   0.00000       0.00000    
      6145 IM1      4        IM1      H4       HDR5A    0.150000       1.00800           0   0.00000       0.00000    
      6146 IM1      4        IM1      C3       CD2R5A    2.22510       11.6110           0  -1.37800       1.30000    
      6147 IM1      4        IM1      DC3      DRUD     -2.03710      0.400000           0   0.00000       0.00000    
      6148 IM1      4        IM1      H5       HDR5A    0.530000E-01   1.00800           0   0.00000       0.00000    
      6149 IM1      4        IM1      C4       CD2R5B    1.73480       11.6110           0 -0.868000       1.30000    
      6150 IM1      4        IM1      DC4      DRUD     -1.61680      0.400000           0   0.00000       0.00000    
      6151 IM1      4        IM1      H6       HDR5B    0.730000E-01   1.00800           0   0.00000       0.00000    
      6152 IM1      4        IM1      N2       ND2R5B    1.59050       13.6070           0 -0.840000       1.00000    
      6153 IM1      4        IM1      DN2      DRUD     -1.59050      0.400000           0   0.00000       0.00000    
      6154 IM1      4        IM1      H7       DUMH      0.00000       1.00800           0   0.00000       0.00000    
      6155 IM1      4        IM1      LPN21    LPD     -0.474000       0.00000          -1   0.00000       0.00000    
      6156 IM1      5        IM1      C1       CD33G     1.64330       11.6110           0  -1.08100       1.00000    
      6157 IM1      5        IM1      DC1      DRUD     -1.80430      0.400000           0   0.00000       0.00000    
      6158 IM1      5        IM1      H1       HDA3A    0.940000E-01   1.00800           0   0.00000       0.00000    
      6159 IM1      5        IM1      H2       HDA3A    0.940000E-01   1.00800           0   0.00000       0.00000    
      6160 IM1      5        IM1      H3       HDA3A    0.940000E-01   1.00800           0   0.00000       0.00000    
      6161 IM1      5        IM1      N1       ND2R5A    1.92920       13.6070           0  -1.06300       1.30000    
      6162 IM1      5        IM1      DN1      DRUD     -1.78920      0.400000           0   0.00000       0.00000    
      6163 IM1      5        IM1      C2       CD2R5A    1.66810       11.6110           0  -1.37800       1.30000    
      6164 IM1      5        IM1      DC2      DRUD     -2.03710      0.400000           0   0.00000       0.00000    
      6165 IM1      5        IM1      H4       HDR5A    0.150000       1.00800           0   0.00000       0.00000    
      6166 IM1      5        IM1      C3       CD2R5A    2.22510       11.6110           0  -1.37800       1.30000    
      6167 IM1      5        IM1      DC3      DRUD     -2.03710      0.400000           0   0.00000       0.00000    
      6168 IM1      5        IM1      H5       HDR5A    0.530000E-01   1.00800           0   0.00000       0.00000    
      6169 IM1      5        IM1      C4       CD2R5B    1.73480       11.6110           0 -0.868000       1.30000    
      6170 IM1      5        IM1      DC4      DRUD     -1.61680      0.400000           0   0.00000       0.00000    
      6171 IM1      5        IM1      H6       HDR5B    0.730000E-01   1.00800           0   0.00000       0.00000    
      6172 IM1      5        IM1      N2       ND2R5B    1.59050       13.6070           0 -0.840000       1.00000    
      6173 IM1      5        IM1      DN2      DRUD     -1.59050      0.400000           0   0.00000       0.00000    
      6174 IM1      5        IM1      H7       DUMH      0.00000       1.00800           0   0.00000       0.00000    
      6175 IM1      5        IM1      LPN21    LPD     -0.474000       0.00000          -1   0.00000       0.00000    
      6176 IM1      6        IM1      C1       CD33G     1.64330       11.6110           0  -1.08100       1.00000    
      6177 IM1      6        IM1      DC1      DRUD     -1.80430      0.400000           0   0.00000       0.00000    
      6178 IM1      6        IM1      H1       HDA3A    0.940000E-01   1.00800           0   0.00000       0.00000    
      6179 IM1      6        IM1      H2       HDA3A    0.940000E-01   1.00800           0   0.00000       0.00000    
      6180 IM1      6        IM1      H3       HDA3A    0.940000E-01   1.00800           0   0.00000       0.00000    
      6181 IM1      6        IM1      N1       ND2R5A    1.92920       13.6070           0  -1.06300       1.30000    
      6182 IM1      6        IM1      DN1      DRUD     -1.78920      0.400000           0   0.00000       0.00000    
      6183 IM1      6        IM1      C2       CD2R5A    1.66810       11.6110           0  -1.37800       1.30000    
      6184 IM1      6        IM1      DC2      DRUD     -2.03710      0.400000           0   0.00000       0.00000    
      6185 IM1      6        IM1      H4       HDR5A    0.150000       1.00800           0   0.00000       0.00000    
      6186 IM1      6        IM1      C3       CD2R5A    2.22510       11.6110           0  -1.37800       1.30000    
      6187 IM1      6        IM1      DC3      DRUD     -2.03710      0.400000           0   0.00000       0.00000    
      6188 IM1      6        IM1      H5       HDR5A    0.530000E-01   1.00800           0   0.00000       0.00000    
      6189 IM1      6        IM1      C4       CD2R5B    1.73480       11.6110           0 -0.868000       1.30000    
      6190 IM1      6        IM1      DC4      DRUD     -1.61680      0.400000           0   0.00000       0.00000    
      6191 IM1      6        IM1      H6       HDR5B    0.730000E-01   1.00800           0   0.00000       0.00000    
      6192 IM1      6        IM1      N2       ND2R5B    1.59050       13.6070           0 -0.840000       1.00000    
      6193 IM1      6        IM1      DN2      DRUD     -1.59050      0.400000           0   0.00000       0.00000    
      6194 IM1      6        IM1      H7       DUMH      0.00000       1.00800           0   0.00000       0.00000    
      6195 IM1      6        IM1      LPN21    LPD     -0.474000       0.00000          -1   0.00000       0.00000    
      6196 IM1      7        IM1      C1       CD33G     1.64330       11.6110           0  -1.08100       1.00000    
      6197 IM1      7        IM1      DC1      DRUD     -1.80430      0.400000           0   0.00000       0.00000    
      6198 IM1      7        IM1      H1       HDA3A    0.940000E-01   1.00800           0   0.00000       0.00000    
      6199 IM1      7        IM1      H2       HDA3A    0.940000E-01   1.00800           0   0.00000       0.00000    
      6200 IM1      7        IM1      H3       HDA3A    0.940000E-01   1.00800           0   0.00000       0.00000    
      6201 IM1      7        IM1      N1       ND2R5A    1.92920       13.6070           0  -1.06300       1.30000    
      6202 IM1      7        IM1      DN1      DRUD     -1.78920      0.400000           0   0.00000       0.00000    
      6203 IM1      7        IM1      C2       CD2R5A    1.66810       11.6110           0  -1.37800       1.30000    
      6204 IM1      7        IM1      DC2      DRUD     -2.03710      0.400000           0   0.00000       0.00000    
      6205 IM1      7        IM1      H4       HDR5A    0.150000       1.00800           0   0.00000       0.00000    
      6206 IM1      7        IM1      C3       CD2R5A    2.22510       11.6110           0  -1.37800       1.30000    
      6207 IM1      7        IM1      DC3      DRUD     -2.03710      0.400000           0   0.00000       0.00000    
      6208 IM1      7        IM1      H5       HDR5A    0.530000E-01   1.00800           0   0.00000       0.00000    
      6209 IM1      7        IM1      C4       CD2R5B    1.73480       11.6110           0 -0.868000       1.30000    
      6210 IM1      7        IM1      DC4      DRUD     -1.61680      0.400000           0   0.00000       0.00000    
      6211 IM1      7        IM1      H6       HDR5B    0.730000E-01   1.00800           0   0.00000       0.00000    
      6212 IM1      7        IM1      N2       ND2R5B    1.59050       13.6070           0 -0.840000       1.00000    
      6213 IM1      7        IM1      DN2      DRUD     -1.59050      0.400000           0   0.00000       0.00000    
      6214 IM1      7        IM1      H7       DUMH      0.00000       1.00800           0   0.00000       0.00000    
      6215 IM1      7        IM1      LPN21    LPD     -0.474000       0.00000          -1   0.00000       0.00000    
      6216 IM1      8        IM1      C1       CD33G     1.64330       11.6110           0  -1.08100       1.00000    
      6217 IM1      8        IM1      DC1      DRUD     -1.80430      0.400000           0   0.00000       0.00000    
      6218 IM1      8        IM1      H1       HDA3A    0.940000E-01   1.00800           0   0.00000       0.00000    
      6219 IM1      8        IM1      H2       HDA3A    0.940000E-01   1.00800           0   0.00000       0.00000    
      6220 IM1      8        IM1      H3       HDA3A    0.940000E-01   1.00800           0   0.00000       0.00000    
      6221 IM1      8        IM1      N1       ND2R5A    1.92920       13.6070           0  -1.06300       1.30000    
      6222 IM1      8        IM1      DN1      DRUD     -1.78920      0.400000           0   0.00000       0.00000    
      6223 IM1      8        IM1      C2       CD2R5A    1.66810       11.6110           0  -1.37800       1.30000    
      6224 IM1      8        IM1      DC2      DRUD     -2.03710      0.400000           0   0.00000       0.00000    
      6225 IM1      8        IM1      H4       HDR5A    0.150000       1.00800           0   0.00000       0.00000    
      6226 IM1      8        IM1      C3       CD2R5A    2.22510       11.6110           0  -1.37800       1.30000    
      6227 IM1      8        IM1      DC3      DRUD     -2.03710      0.400000           0   0.00000       0.00000    
      6228 IM1      8        IM1      H5       HDR5A    0.530000E-01   1.00800           0   0.00000       0.00000    
      6229 IM1      8        IM1      C4       CD2R5B    1.73480       11.6110           0 -0.868000       1.30000    
      6230 IM1      8        IM1      DC4      DRUD     -1.61680      0.400000           0   0.00000       0.00000    
      6231 IM1      8        IM1      H6       HDR5B    0.730000E-01   1.00800           0   0.00000       0.00000    
      6232 IM1      8        IM1      N2       ND2R5B    1.59050       13.6070           0 -0.840000       1.00000    
      6233 IM1      8        IM1      DN2      DRUD     -1.59050      0.400000           0   0.00000       0.00000    
      6234 IM1      8        IM1      H7       DUMH      0.00000       1.00800           0   0.00000       0.00000    
      6235 IM1      8        IM1      LPN21    LPD     -0.474000       0.00000          -1   0.00000       0.00000    
      6236 IM1      9        IM1      C1       CD33G     1.64330       11.6110           0  -1.08100       1.00000    
      6237 IM1      9        IM1      DC1      DRUD     -1.80430      0.400000           0   0.00000       0.00000    
      6238 IM1      9        IM1      H1       HDA3A    0.940000E-01   1.00800           0   0.00000       0.00000    
      6239 IM1      9        IM1      H2       HDA3A    0.940000E-01   1.00800           0   0.00000       0.00000    
      6240 IM1      9        IM1      H3       HDA3A    0.940000E-01   1.00800           0   0.00000       0.00000    
      6241 IM1      9        IM1      N1       ND2R5A    1.92920       13.6070           0  -1.06300       1.30000    
      6242 IM1      9        IM1      DN1      DRUD     -1.78920      0.400000           0   0.00000       0.00000    
      6243 IM1      9        IM1      C2       CD2R5A    1.66810       11.6110           0  -1.37800       1.30000    
      6244 IM1      9        IM1      DC2      DRUD     -2.03710      0.400000           0   0.00000       0.00000    
      6245 IM1      9        IM1      H4       HDR5A    0.150000       1.00800           0   0.00000       0.00000    
      6246 IM1      9        IM1      C3       CD2R5A    2.22510       11.6110           0  -1.37800       1.30000    
      6247 IM1      9        IM1      DC3      DRUD     -2.03710      0.400000           0   0.00000       0.00000    
      6248 IM1      9        IM1      H5       HDR5A    0.530000E-01   1.00800           0   0.00000       0.00000    
      6249 IM1      9        IM1      C4       CD2R5B    1.73480       11.6110           0 -0.868000       1.30000    
      6250 IM1      9        IM1      DC4      DRUD     -1.61680      0.400000           0   0.00000       0.00000    
      6251 IM1      9        IM1      H6       HDR5B    0.730000E-01   1.00800           0   0.00000       0.00000    
      6252 IM1      9        IM1      N2       ND2R5B    1.59050       13.6070           0 -0.840000       1.00000    
      6253 IM1      9        IM1      DN2      DRUD     -1.59050      0.400000           0   0.00000       0.00000    
      6254 IM1      9        IM1      H7       DUMH      0.00000       1.00800           0   0.00000       0.00000    
      6255 IM1      9        IM1      LPN21    LPD     -0.474000       0.00000          -1   0.00000       0.00000    
      6256 IM1      10       IM1      C1       CD33G     1.64330       11.6110           0  -1.08100       1.00000    
      6257 IM1      10       IM1      DC1      DRUD     -1.80430      0.400000           0   0.00000       0.00000    
      6258 IM1      10       IM1      H1       HDA3A    0.940000E-01   1.00800           0   0.00000       0.00000    
      6259 IM1      10       IM1      H2       HDA3A    0.940000E-01   1.00800           0   0.00000       0.00000    
      6260 IM1      10       IM1      H3       HDA3A    0.940000E-01   1.00800           0   0.00000       0.00000    
      6261 IM1      10       IM1      N1       ND2R5A    1.92920       13.6070           0  -1.06300       1.30000    
      6262 IM1      10       IM1      DN1      DRUD     -1.78920      0.400000           0   0.00000       0.00000    
      6263 IM1      10       IM1      C2       CD2R5A    1.66810       11.6110           0  -1.37800       1.30000    
      6264 IM1      10       IM1      DC2      DRUD     -2.03710      0.400000           0   0.00000       0.00000    
      6265 IM1      10       IM1      H4       HDR5A    0.150000       1.00800           0   0.00000       0.00000    
      6266 IM1      10       IM1      C3       CD2R5A    2.22510       11.6110           0  -1.37800       1.30000    
      6267 IM1      10       IM1      DC3      DRUD     -2.03710      0.400000           0   0.00000       0.00000    
      6268 IM1      10       IM1      H5       HDR5A    0.530000E-01   1.00800           0   0.00000       0.00000    
      6269 IM1      10       IM1      C4       CD2R5B    1.73480       11.6110           0 -0.868000       1.30000    
      6270 IM1      10       IM1      DC4      DRUD     -1.61680      0.400000           0   0.00000       0.00000    
      6271 IM1      10       IM1      H6       HDR5B    0.730000E-01   1.00800           0   0.00000       0.00000    
      6272 IM1      10       IM1      N2       ND2R5B    1.59050       13.6070           0 -0.840000       1.00000    
      6273 IM1      10       IM1      DN2      DRUD     -1.59050      0.400000           0   0.00000       0.00000    
      6274 IM1      10       IM1      H7       DUMH      0.00000       1.00800           0   0.00000       0.00000    
      6275 IM1      10       IM1      LPN21    LPD     -0.474000       0.00000          -1   0.00000       0.00000    
      6276 IM1      11       IM1      C1       CD33G     1.64330       11.6110           0  -1.08100       1.00000    
      6277 IM1      11       IM1      DC1      DRUD     -1.80430      0.400000           0   0.00000       0.00000    
      6278 IM1      11       IM1      H1       HDA3A    0.940000E-01   1.00800           0   0.00000       0.00000    
      6279 IM1      11       IM1      H2       HDA3A    0.940000E-01   1.00800           0   0.00000       0.00000    
      6280 IM1      11       IM1      H3       HDA3A    0.940000E-01   1.00800           0   0.00000       0.00000    
      6281 IM1      11       IM1      N1       ND2R5A    1.92920       13.6070           0  -1.06300       1.30000    
      6282 IM1      11       IM1      DN1      DRUD     -1.78920      0.400000           0   0.00000       0.00000    
      6283 IM1      11       IM1      C2       CD2R5A    1.66810       11.6110           0  -1.37800       1.30000    
      6284 IM1      11       IM1      DC2      DRUD     -2.03710      0.400000           0   0.00000       0.00000    
      6285 IM1      11       IM1      H4       HDR5A    0.150000       1.00800           0   0.00000       0.00000    
      6286 IM1      11       IM1      C3       CD2R5A    2.22510       11.6110           0  -1.37800       1.30000    
      6287 IM1      11       IM1      DC3      DRUD     -2.03710      0.400000           0   0.00000       0.00000    
      6288 IM1      11       IM1      H5       HDR5A    0.530000E-01   1.00800           0   0.00000       0.00000    
      6289 IM1      11       IM1      C4       CD2R5B    1.73480       11.6110           0 -0.868000       1.30000    
      6290 IM1      11       IM1      DC4      DRUD     -1.61680      0.400000           0   0.00000       0.00000    
      6291 IM1      11       IM1      H6       HDR5B    0.730000E-01   1.00800           0   0.00000       0.00000    
      6292 IM1      11       IM1      N2       ND2R5B    1.59050       13.6070           0 -0.840000       1.00000    
      6293 IM1      11       IM1      DN2      DRUD     -1.59050      0.400000           0   0.00000       0.00000    
      6294 IM1      11       IM1      H7       DUMH      0.00000       1.00800           0   0.00000       0.00000    
      6295 IM1      11       IM1      LPN21    LPD     -0.474000       0.00000          -1   0.00000       0.00000    
      6296 IM1      12       IM1      C1       CD33G     1.64330       11.6110           0  -1.08100       1.00000    
      6297 IM1      12       IM1      DC1      DRUD     -1.80430      0.400000           0   0.00000       0.00000    
      6298 IM1      12       IM1      H1       HDA3A    0.940000E-01   1.00800           0   0.00000       0.00000    
      6299 IM1      12       IM1      H2       HDA3A    0.940000E-01   1.00800           0   0.00000       0.00000    
      6300 IM1      12       IM1      H3       HDA3A    0.940000E-01   1.00800           0   0.00000       0.00000    
      6301 IM1      12       IM1      N1       ND2R5A    1.92920       13.6070           0  -1.06300       1.30000    
      6302 IM1      12       IM1      DN1      DRUD     -1.78920      0.400000           0   0.00000       0.00000    
      6303 IM1      12       IM1      C2       CD2R5A    1.66810       11.6110           0  -1.37800       1.30000    
      6304 IM1      12       IM1      DC2      DRUD     -2.03710      0.400000           0   0.00000       0.00000    
      6305 IM1      12       IM1      H4       HDR5A    0.150000       1.00800           0   0.00000       0.00000    
      6306 IM1      12       IM1      C3       CD2R5A    2.22510       11.6110           0  -1.37800       1.30000    
      6307 IM1      12       IM1      DC3      DRUD     -2.03710      0.400000           0   0.00000       0.00000    
      6308 IM1      12       IM1      H5       HDR5A    0.530000E-01   1.00800           0   0.00000       0.00000    
      6309 IM1      12       IM1      C4       CD2R5B    1.73480       11.6110           0 -0.868000       1.30000    
      6310 IM1      12       IM1      DC4      DRUD     -1.61680      0.400000           0   0.00000       0.00000    
      6311 IM1      12       IM1      H6       HDR5B    0.730000E-01   1.00800           0   0.00000       0.00000    
      6312 IM1      12       IM1      N2       ND2R5B    1.59050       13.6070           0 -0.840000       1.00000    
      6313 IM1      12       IM1      DN2      DRUD     -1.59050      0.400000           0   0.00000       0.00000    
      6314 IM1      12       IM1      H7       DUMH      0.00000       1.00800           0   0.00000       0.00000    
      6315 IM1      12       IM1      LPN21    LPD     -0.474000       0.00000          -1   0.00000       0.00000    
      6316 IM1      13       IM1      C1       CD33G     1.64330       11.6110           0  -1.08100       1.00000    
      6317 IM1      13       IM1      DC1      DRUD     -1.80430      0.400000           0   0.00000       0.00000    
      6318 IM1      13       IM1      H1       HDA3A    0.940000E-01   1.00800           0   0.00000       0.00000    
      6319 IM1      13       IM1      H2       HDA3A    0.940000E-01   1.00800           0   0.00000       0.00000    
      6320 IM1      13       IM1      H3       HDA3A    0.940000E-01   1.00800           0   0.00000       0.00000    
      6321 IM1      13       IM1      N1       ND2R5A    1.92920       13.6070           0  -1.06300       1.30000    
      6322 IM1      13       IM1      DN1      DRUD     -1.78920      0.400000           0   0.00000       0.00000    
      6323 IM1      13       IM1      C2       CD2R5A    1.66810       11.6110           0  -1.37800       1.30000    
      6324 IM1      13       IM1      DC2      DRUD     -2.03710      0.400000           0   0.00000       0.00000    
      6325 IM1      13       IM1      H4       HDR5A    0.150000       1.00800           0   0.00000       0.00000    
      6326 IM1      13       IM1      C3       CD2R5A    2.22510       11.6110           0  -1.37800       1.30000    
      6327 IM1      13       IM1      DC3      DRUD     -2.03710      0.400000           0   0.00000       0.00000    
      6328 IM1      13       IM1      H5       HDR5A    0.530000E-01   1.00800           0   0.00000       0.00000    
      6329 IM1      13       IM1      C4       CD2R5B    1.73480       11.6110           0 -0.868000       1.30000    
      6330 IM1      13       IM1      DC4      DRUD     -1.61680      0.400000           0   0.00000       0.00000    
      6331 IM1      13       IM1      H6       HDR5B    0.730000E-01   1.00800           0   0.00000       0.00000    
      6332 IM1      13       IM1      N2       ND2R5B    1.59050       13.6070           0 -0.840000       1.00000    
      6333 IM1      13       IM1      DN2      DRUD     -1.59050      0.400000           0   0.00000       0.00000    
      6334 IM1      13       IM1      H7       DUMH      0.00000       1.00800           0   0.00000       0.00000    
      6335 IM1      13       IM1      LPN21    LPD     -0.474000       0.00000          -1   0.00000       0.00000    
      6336 IM1      14       IM1      C1       CD33G     1.64330       11.6110           0  -1.08100       1.00000    
      6337 IM1      14       IM1      DC1      DRUD     -1.80430      0.400000           0   0.00000       0.00000    
      6338 IM1      14       IM1      H1       HDA3A    0.940000E-01   1.00800           0   0.00000       0.00000    
      6339 IM1      14       IM1      H2       HDA3A    0.940000E-01   1.00800           0   0.00000       0.00000    
      6340 IM1      14       IM1      H3       HDA3A    0.940000E-01   1.00800           0   0.00000       0.00000    
      6341 IM1      14       IM1      N1       ND2R5A    1.92920       13.6070           0  -1.06300       1.30000    
      6342 IM1      14       IM1      DN1      DRUD     -1.78920      0.400000           0   0.00000       0.00000    
      6343 IM1      14       IM1      C2       CD2R5A    1.66810       11.6110           0  -1.37800       1.30000    
      6344 IM1      14       IM1      DC2      DRUD     -2.03710      0.400000           0   0.00000       0.00000    
      6345 IM1      14       IM1      H4       HDR5A    0.150000       1.00800           0   0.00000       0.00000    
      6346 IM1      14       IM1      C3       CD2R5A    2.22510       11.6110           0  -1.37800       1.30000    
      6347 IM1      14       IM1      DC3      DRUD     -2.03710      0.400000           0   0.00000       0.00000    
      6348 IM1      14       IM1      H5       HDR5A    0.530000E-01   1.00800           0   0.00000       0.00000    
      6349 IM1      14       IM1      C4       CD2R5B    1.73480       11.6110           0 -0.868000       1.30000    
      6350 IM1      14       IM1      DC4      DRUD     -1.61680      0.400000           0   0.00000       0.00000    
      6351 IM1      14       IM1      H6       HDR5B    0.730000E-01   1.00800           0   0.00000       0.00000    
      6352 IM1      14       IM1      N2       ND2R5B    1.59050       13.6070           0 -0.840000       1.00000    
      6353 IM1      14       IM1      DN2      DRUD     -1.59050      0.400000           0   0.00000       0.00000    
      6354 IM1      14       IM1      H7       DUMH      0.00000       1.00800           0   0.00000       0.00000    
      6355 IM1      14       IM1      LPN21    LPD     -0.474000       0.00000          -1   0.00000       0.00000    
      6356 IM1      15       IM1      C1       CD33G     1.64330       11.6110           0  -1.08100       1.00000    
      6357 IM1      15       IM1      DC1      DRUD     -1.80430      0.400000           0   0.00000       0.00000    
      6358 IM1      15       IM1      H1       HDA3A    0.940000E-01   1.00800           0   0.00000       0.00000    
      6359 IM1      15       IM1      H2       HDA3A    0.940000E-01   1.00800           0   0.00000       0.00000    
      6360 IM1      15       IM1      H3       HDA3A    0.940000E-01   1.00800           0   0.00000       0.00000    
      6361 IM1      15       IM1      N1       ND2R5A    1.92920       13.6070           0  -1.06300       1.30000    
      6362 IM1      15       IM1      DN1      DRUD     -1.78920      0.400000           0   0.00000       0.00000    
      6363 IM1      15       IM1      C2       CD2R5A    1.66810       11.6110           0  -1.37800       1.30000    
      6364 IM1      15       IM1      DC2      DRUD     -2.03710      0.400000           0   0.00000       0.00000    
      6365 IM1      15       IM1      H4       HDR5A    0.150000       1.00800           0   0.00000       0.00000    
      6366 IM1      15       IM1      C3       CD2R5A    2.22510       11.6110           0  -1.37800       1.30000    
      6367 IM1      15       IM1      DC3      DRUD     -2.03710      0.400000           0   0.00000       0.00000    
      6368 IM1      15       IM1      H5       HDR5A    0.530000E-01   1.00800           0   0.00000       0.00000    
      6369 IM1      15       IM1      C4       CD2R5B    1.73480       11.6110           0 -0.868000       1.30000    
      6370 IM1      15       IM1      DC4      DRUD     -1.61680      0.400000           0   0.00000       0.00000    
      6371 IM1      15       IM1      H6       HDR5B    0.730000E-01   1.00800           0   0.00000       0.00000    
      6372 IM1      15       IM1      N2       ND2R5B    1.59050       13.6070           0 -0.840000       1.00000    
      6373 IM1      15       IM1      DN2      DRUD     -1.59050      0.400000           0   0.00000       0.00000    
      6374 IM1      15       IM1      H7       DUMH      0.00000       1.00800           0   0.00000       0.00000    
      6375 IM1      15       IM1      LPN21    LPD     -0.474000       0.00000          -1   0.00000       0.00000    
      6376 IM1      16       IM1      C1       CD33G     1.64330       11.6110           0  -1.08100       1.00000    
      6377 IM1      16       IM1      DC1      DRUD     -1.80430      0.400000           0   0.00000       0.00000    
      6378 IM1      16       IM1      H1       HDA3A    0.940000E-01   1.00800           0   0.00000       0.00000    
      6379 IM1      16       IM1      H2       HDA3A    0.940000E-01   1.00800           0   0.00000       0.00000    
      6380 IM1      16       IM1      H3       HDA3A    0.940000E-01   1.00800           0   0.00000       0.00000    
      6381 IM1      16       IM1      N1       ND2R5A    1.92920       13.6070           0  -1.06300       1.30000    
      6382 IM1      16       IM1      DN1      DRUD     -1.78920      0.400000           0   0.00000       0.00000    
      6383 IM1      16       IM1      C2       CD2R5A    1.66810       11.6110           0  -1.37800       1.30000    
      6384 IM1      16       IM1      DC2      DRUD     -2.03710      0.400000           0   0.00000       0.00000    
      6385 IM1      16       IM1      H4       HDR5A    0.150000       1.00800           0   0.00000       0.00000    
      6386 IM1      16       IM1      C3       CD2R5A    2.22510       11.6110           0  -1.37800       1.30000    
      6387 IM1      16       IM1      DC3      DRUD     -2.03710      0.400000           0   0.00000       0.00000    
      6388 IM1      16       IM1      H5       HDR5A    0.530000E-01   1.00800           0   0.00000       0.00000    
      6389 IM1      16       IM1      C4       CD2R5B    1.73480       11.6110           0 -0.868000       1.30000    
      6390 IM1      16       IM1      DC4      DRUD     -1.61680      0.400000           0   0.00000       0.00000    
      6391 IM1      16       IM1      H6       HDR5B    0.730000E-01   1.00800           0   0.00000       0.00000    
      6392 IM1      16       IM1      N2       ND2R5B    1.59050       13.6070           0 -0.840000       1.00000    
      6393 IM1      16       IM1      DN2      DRUD     -1.59050      0.400000           0   0.00000       0.00000    
      6394 IM1      16       IM1      H7       DUMH      0.00000       1.00800           0   0.00000       0.00000    
      6395 IM1      16       IM1      LPN21    LPD     -0.474000       0.00000          -1   0.00000       0.00000    
      6396 IM1      17       IM1      C1       CD33G     1.64330       11.6110           0  -1.08100       1.00000    
      6397 IM1      17       IM1      DC1      DRUD     -1.80430      0.400000           0   0.00000       0.00000    
      6398 IM1      17       IM1      H1       HDA3A    0.940000E-01   1.00800           0   0.00000       0.00000    
      6399 IM1      17       IM1      H2       HDA3A    0.940000E-01   1.00800           0   0.00000       0.00000    
      6400 IM1      17       IM1      H3       HDA3A    0.940000E-01   1.00800           0   0.00000       0.00000    
      6401 IM1      17       IM1      N1       ND2R5A    1.92920       13.6070           0  -1.06300       1.30000    
      6402 IM1      17       IM1      DN1      DRUD     -1.78920      0.400000           0   0.00000       0.00000    
      6403 IM1      17       IM1      C2       CD2R5A    1.66810       11.6110           0  -1.37800       1.30000    
      6404 IM1      17       IM1      DC2      DRUD     -2.03710      0.400000           0   0.00000       0.00000    
      6405 IM1      17       IM1      H4       HDR5A    0.150000       1.00800           0   0.00000       0.00000    
      6406 IM1      17       IM1      C3       CD2R5A    2.22510       11.6110           0  -1.37800       1.30000    
      6407 IM1      17       IM1      DC3      DRUD     -2.03710      0.400000           0   0.00000       0.00000    
      6408 IM1      17       IM1      H5       HDR5A    0.530000E-01   1.00800           0   0.00000       0.00000    
      6409 IM1      17       IM1      C4       CD2R5B    1.73480       11.6110           0 -0.868000       1.30000    
      6410 IM1      17       IM1      DC4      DRUD     -1.61680      0.400000           0   0.00000       0.00000    
      6411 IM1      17       IM1      H6       HDR5B    0.730000E-01   1.00800           0   0.00000       0.00000    
      6412 IM1      17       IM1      N2       ND2R5B    1.59050       13.6070           0 -0.840000       1.00000    
      6413 IM1      17       IM1      DN2      DRUD     -1.59050      0.400000           0   0.00000       0.00000    
      6414 IM1      17       IM1      H7       DUMH      0.00000       1.00800           0   0.00000       0.00000    
      6415 IM1      17       IM1      LPN21    LPD     -0.474000       0.00000          -1   0.00000       0.00000    
      6416 IM1      18       IM1      C1       CD33G     1.64330       11.6110           0  -1.08100       1.00000    
      6417 IM1      18       IM1      DC1      DRUD     -1.80430      0.400000           0   0.00000       0.00000    
      6418 IM1      18       IM1      H1       HDA3A    0.940000E-01   1.00800           0   0.00000       0.00000    
      6419 IM1      18       IM1      H2       HDA3A    0.940000E-01   1.00800           0   0.00000       0.00000    
      6420 IM1      18       IM1      H3       HDA3A    0.940000E-01   1.00800           0   0.00000       0.00000    
      6421 IM1      18       IM1      N1       ND2R5A    1.92920       13.6070           0  -1.06300       1.30000    
      6422 IM1      18       IM1      DN1      DRUD     -1.78920      0.400000           0   0.00000       0.00000    
      6423 IM1      18       IM1      C2       CD2R5A    1.66810       11.6110           0  -1.37800       1.30000    
      6424 IM1      18       IM1      DC2      DRUD     -2.03710      0.400000           0   0.00000       0.00000    
      6425 IM1      18       IM1      H4       HDR5A    0.150000       1.00800           0   0.00000       0.00000    
      6426 IM1      18       IM1      C3       CD2R5A    2.22510       11.6110           0  -1.37800       1.30000    
      6427 IM1      18       IM1      DC3      DRUD     -2.03710      0.400000           0   0.00000       0.00000    
      6428 IM1      18       IM1      H5       HDR5A    0.530000E-01   1.00800           0   0.00000       0.00000    
      6429 IM1      18       IM1      C4       CD2R5B    1.73480       11.6110           0 -0.868000       1.30000    
      6430 IM1      18       IM1      DC4      DRUD     -1.61680      0.400000           0   0.00000       0.00000    
      6431 IM1      18       IM1      H6       HDR5B    0.730000E-01   1.00800           0   0.00000       0.00000    
      6432 IM1      18       IM1      N2       ND2R5B    1.59050       13.6070           0 -0.840000       1.00000    
      6433 IM1      18       IM1      DN2      DRUD     -1.59050      0.400000           0   0.00000       0.00000    
      6434 IM1      18       IM1      H7       DUMH      0.00000       1.00800           0   0.00000       0.00000    
      6435 IM1      18       IM1      LPN21    LPD     -0.474000       0.00000          -1   0.00000       0.00000    
      6436 IM1      19       IM1      C1       CD33G     1.64330       11.6110           0  -1.08100       1.00000    
      6437 IM1      19       IM1      DC1      DRUD     -1.80430      0.400000           0   0.00000       0.00000    
      6438 IM1      19       IM1      H1       HDA3A    0.940000E-01   1.00800           0   0.00000       0.00000    
      6439 IM1      19       IM1      H2       HDA3A    0.940000E-01   1.00800           0   0.00000       0.00000    
      6440 IM1      19       IM1      H3       HDA3A    0.940000E-01   1.00800           0   0.00000       0.00000    
      6441 IM1      19       IM1      N1       ND2R5A    1.92920       13.6070           0  -1.06300       1.30000    
      6442 IM1      19       IM1      DN1      DRUD     -1.78920      0.400000           0   0.00000       0.00000    
      6443 IM1      19       IM1      C2       CD2R5A    1.66810       11.6110           0  -1.37800       1.30000    
      6444 IM1      19       IM1      DC2      DRUD     -2.03710      0.400000           0   0.00000       0.00000    
      6445 IM1      19       IM1      H4       HDR5A    0.150000       1.00800           0   0.00000       0.00000    
      6446 IM1      19       IM1      C3       CD2R5A    2.22510       11.6110           0  -1.37800       1.30000    
      6447 IM1      19       IM1      DC3      DRUD     -2.03710      0.400000           0   0.00000       0.00000    
      6448 IM1      19       IM1      H5       HDR5A    0.530000E-01   1.00800           0   0.00000       0.00000    
      6449 IM1      19       IM1      C4       CD2R5B    1.73480       11.6110           0 -0.868000       1.30000    
      6450 IM1      19       IM1      DC4      DRUD     -1.61680      0.400000           0   0.00000       0.00000    
      6451 IM1      19       IM1      H6       HDR5B    0.730000E-01   1.00800           0   0.00000       0.00000    
      6452 IM1      19       IM1      N2       ND2R5B    1.59050       13.6070           0 -0.840000       1.00000    
      6453 IM1      19       IM1      DN2      DRUD     -1.59050      0.400000           0   0.00000       0.00000    
      6454 IM1      19       IM1      H7       DUMH      0.00000       1.00800           0   0.00000       0.00000    
      6455 IM1      19       IM1      LPN21    LPD     -0.474000       0.00000          -1   0.00000       0.00000    
      6456 IM1      20       IM1      C1       CD33G     1.64330       11.6110           0  -1.08100       1.00000    
      6457 IM1      20       IM1      DC1      DRUD     -1.80430      0.400000           0   0.00000       0.00000    
      6458 IM1      20       IM1      H1       HDA3A    0.940000E-01   1.00800           0   0.00000       0.00000    
      6459 IM1      20       IM1      H2       HDA3A    0.940000E-01   1.00800           0   0.00000       0.00000    
      6460 IM1      20       IM1      H3       HDA3A    0.940000E-01   1.00800           0   0.00000       0.00000    
      6461 IM1      20       IM1      N1       ND2R5A    1.92920       13.6070           0  -1.06300       1.30000    
      6462 IM1      20       IM1      DN1      DRUD     -1.78920      0.400000           0   0.00000       0.00000    
      6463 IM1      20       IM1      C2       CD2R5A    1.66810       11.6110           0  -1.37800       1.30000    
      6464 IM1      20       IM1      DC2      DRUD     -2.03710      0.400000           0   0.00000       0.00000    
      6465 IM1      20       IM1      H4       HDR5A    0.150000       1.00800           0   0.00000       0.00000    
      6466 IM1      20       IM1      C3       CD2R5A    2.22510       11.6110           0  -1.37800       1.30000    
      6467 IM1      20       IM1      DC3      DRUD     -2.03710      0.400000           0   0.00000       0.00000    
      6468 IM1      20       IM1      H5       HDR5A    0.530000E-01   1.00800           0   0.00000       0.00000    
      6469 IM1      20       IM1      C4       CD2R5B    1.73480       11.6110           0 -0.868000       1.30000    
      6470 IM1      20       IM1      DC4      DRUD     -1.61680      0.400000           0   0.00000       0.00000    
      6471 IM1      20       IM1      H6       HDR5B    0.730000E-01   1.00800           0   0.00000       0.00000    
      6472 IM1      20       IM1      N2       ND2R5B    1.59050       13.6070           0 -0.840000       1.00000    
      6473 IM1      20       IM1      DN2      DRUD     -1.59050      0.400000           0   0.00000       0.00000    
      6474 IM1      20       IM1      H7       DUMH      0.00000       1.00800           0   0.00000       0.00000    
      6475 IM1      20       IM1      LPN21    LPD     -0.474000       0.00000          -1   0.00000       0.00000    
      6476 IM1      21       IM1      C1       CD33G     1.64330       11.6110           0  -1.08100       1.00000    
      6477 IM1      21       IM1      DC1      DRUD     -1.80430      0.400000           0   0.00000       0.00000    
      6478 IM1      21       IM1      H1       HDA3A    0.940000E-01   1.00800           0   0.00000       0.00000    
      6479 IM1      21       IM1      H2       HDA3A    0.940000E-01   1.00800           0   0.00000       0.00000    
      6480 IM1      21       IM1      H3       HDA3A    0.940000E-01   1.00800           0   0.00000       0.00000    
      6481 IM1      21       IM1      N1       ND2R5A    1.92920       13.6070           0  -1.06300       1.30000    
      6482 IM1      21       IM1      DN1      DRUD     -1.78920      0.400000           0   0.00000       0.00000    
      6483 IM1      21       IM1      C2       CD2R5A    1.66810       11.6110           0  -1.37800       1.30000    
      6484 IM1      21       IM1      DC2      DRUD     -2.03710      0.400000           0   0.00000       0.00000    
      6485 IM1      21       IM1      H4       HDR5A    0.150000       1.00800           0   0.00000       0.00000    
      6486 IM1      21       IM1      C3       CD2R5A    2.22510       11.6110           0  -1.37800       1.30000    
      6487 IM1      21       IM1      DC3      DRUD     -2.03710      0.400000           0   0.00000       0.00000    
      6488 IM1      21       IM1      H5       HDR5A    0.530000E-01   1.00800           0   0.00000       0.00000    
      6489 IM1      21       IM1      C4       CD2R5B    1.73480       11.6110           0 -0.868000       1.30000    
      6490 IM1      21       IM1      DC4      DRUD     -1.61680      0.400000           0   0.00000       0.00000    
      6491 IM1      21       IM1      H6       HDR5B    0.730000E-01   1.00800           0   0.00000       0.00000    
      6492 IM1      21       IM1      N2       ND2R5B    1.59050       13.6070           0 -0.840000       1.00000    
      6493 IM1      21       IM1      DN2      DRUD     -1.59050      0.400000           0   0.00000       0.00000    
      6494 IM1      21       IM1      H7       DUMH      0.00000       1.00800           0   0.00000       0.00000    
      6495 IM1      21       IM1      LPN21    LPD     -0.474000       0.00000          -1   0.00000       0.00000    
      6496 IM1      22       IM1      C1       CD33G     1.64330       11.6110           0  -1.08100       1.00000    
      6497 IM1      22       IM1      DC1      DRUD     -1.80430      0.400000           0   0.00000       0.00000    
      6498 IM1      22       IM1      H1       HDA3A    0.940000E-01   1.00800           0   0.00000       0.00000    
      6499 IM1      22       IM1      H2       HDA3A    0.940000E-01   1.00800           0   0.00000       0.00000    
      6500 IM1      22       IM1      H3       HDA3A    0.940000E-01   1.00800           0   0.00000       0.00000    
      6501 IM1      22       IM1      N1       ND2R5A    1.92920       13.6070           0  -1.06300       1.30000    
      6502 IM1      22       IM1      DN1      DRUD     -1.78920      0.400000           0   0.00000       0.00000    
      6503 IM1      22       IM1      C2       CD2R5A    1.66810       11.6110           0  -1.37800       1.30000    
      6504 IM1      22       IM1      DC2      DRUD     -2.03710      0.400000           0   0.00000       0.00000    
      6505 IM1      22       IM1      H4       HDR5A    0.150000       1.00800           0   0.00000       0.00000    
      6506 IM1      22       IM1      C3       CD2R5A    2.22510       11.6110           0  -1.37800       1.30000    
      6507 IM1      22       IM1      DC3      DRUD     -2.03710      0.400000           0   0.00000       0.00000    
      6508 IM1      22       IM1      H5       HDR5A    0.530000E-01   1.00800           0   0.00000       0.00000    
      6509 IM1      22       IM1      C4       CD2R5B    1.73480       11.6110           0 -0.868000       1.30000    
      6510 IM1      22       IM1      DC4      DRUD     -1.61680      0.400000           0   0.00000       0.00000    
      6511 IM1      22       IM1      H6       HDR5B    0.730000E-01   1.00800           0   0.00000       0.00000    
      6512 IM1      22       IM1      N2       ND2R5B    1.59050       13.6070           0 -0.840000       1.00000    
      6513 IM1      22       IM1      DN2      DRUD     -1.59050      0.400000           0   0.00000       0.00000    
      6514 IM1      22       IM1      H7       DUMH      0.00000       1.00800           0   0.00000       0.00000    
      6515 IM1      22       IM1      LPN21    LPD     -0.474000       0.00000          -1   0.00000       0.00000    
      6516 IM1      23       IM1      C1       CD33G     1.64330       11.6110           0  -1.08100       1.00000    
      6517 IM1      23       IM1      DC1      DRUD     -1.80430      0.400000           0   0.00000       0.00000    
      6518 IM1      23       IM1      H1       HDA3A    0.940000E-01   1.00800           0   0.00000       0.00000    
      6519 IM1      23       IM1      H2       HDA3A    0.940000E-01   1.00800           0   0.00000       0.00000    
      6520 IM1      23       IM1      H3       HDA3A    0.940000E-01   1.00800           0   0.00000       0.00000    
      6521 IM1      23       IM1      N1       ND2R5A    1.92920       13.6070           0  -1.06300       1.30000    
      6522 IM1      23       IM1      DN1      DRUD     -1.78920      0.400000           0   0.00000       0.00000    
      6523 IM1      23       IM1      C2       CD2R5A    1.66810       11.6110           0  -1.37800       1.30000    
      6524 IM1      23       IM1      DC2      DRUD     -2.03710      0.400000           0   0.00000       0.00000    
      6525 IM1      23       IM1      H4       HDR5A    0.150000       1.00800           0   0.00000       0.00000    
      6526 IM1      23       IM1      C3       CD2R5A    2.22510       11.6110           0  -1.37800       1.30000    
      6527 IM1      23       IM1      DC3      DRUD     -2.03710      0.400000           0   0.00000       0.00000    
      6528 IM1      23       IM1      H5       HDR5A    0.530000E-01   1.00800           0   0.00000       0.00000    
      6529 IM1      23       IM1      C4       CD2R5B    1.73480       11.6110           0 -0.868000       1.30000    
      6530 IM1      23       IM1      DC4      DRUD     -1.61680      0.400000           0   0.00000       0.00000    
      6531 IM1      23       IM1      H6       HDR5B    0.730000E-01   1.00800           0   0.00000       0.00000    
      6532 IM1      23       IM1      N2       ND2R5B    1.59050       13.6070           0 -0.840000       1.00000    
      6533 IM1      23       IM1      DN2      DRUD     -1.59050      0.400000           0   0.00000       0.00000    
      6534 IM1      23       IM1      H7       DUMH      0.00000       1.00800           0   0.00000       0.00000    
      6535 IM1      23       IM1      LPN21    LPD     -0.474000       0.00000          -1   0.00000       0.00000    
      6536 IM1      24       IM1      C1       CD33G     1.64330       11.6110           0  -1.08100       1.00000    
      6537 IM1      24       IM1      DC1      DRUD     -1.80430      0.400000           0   0.00000       0.00000    
      6538 IM1      24       IM1      H1       HDA3A    0.940000E-01   1.00800           0   0.00000       0.00000    
      6539 IM1      24       IM1      H2       HDA3A    0.940000E-01   1.00800           0   0.00000       0.00000    
      6540 IM1      24       IM1      H3       HDA3A    0.940000E-01   1.00800           0   0.00000       0.00000    
      6541 IM1      24       IM1      N1       ND2R5A    1.92920       13.6070           0  -1.06300       1.30000    
      6542 IM1      24       IM1      DN1      DRUD     -1.78920      0.400000           0   0.00000       0.00000    
      6543 IM1      24       IM1      C2       CD2R5A    1.66810       11.6110           0  -1.37800       1.30000    
      6544 IM1      24       IM1      DC2      DRUD     -2.03710      0.400000           0   0.00000       0.00000    
      6545 IM1      24       IM1      H4       HDR5A    0.150000       1.00800           0   0.00000       0.00000    
      6546 IM1      24       IM1      C3       CD2R5A    2.22510       11.6110           0  -1.37800       1.30000    
      6547 IM1      24       IM1      DC3      DRUD     -2.03710      0.400000           0   0.00000       0.00000    
      6548 IM1      24       IM1      H5       HDR5A    0.530000E-01   1.00800           0   0.00000       0.00000    
      6549 IM1      24       IM1      C4       CD2R5B    1.73480       11.6110           0 -0.868000       1.30000    
      6550 IM1      24       IM1      DC4      DRUD     -1.61680      0.400000           0   0.00000       0.00000    
      6551 IM1      24       IM1      H6       HDR5B    0.730000E-01   1.00800           0   0.00000       0.00000    
      6552 IM1      24       IM1      N2       ND2R5B    1.59050       13.6070           0 -0.840000       1.00000    
      6553 IM1      24       IM1      DN2      DRUD     -1.59050      0.400000           0   0.00000       0.00000    
      6554 IM1      24       IM1      H7       DUMH      0.00000       1.00800           0   0.00000       0.00000    
      6555 IM1      24       IM1      LPN21    LPD     -0.474000       0.00000          -1   0.00000       0.00000    
      6556 IM1      25       IM1      C1       CD33G     1.64330       11.6110           0  -1.08100       1.00000    
      6557 IM1      25       IM1      DC1      DRUD     -1.80430      0.400000           0   0.00000       0.00000    
      6558 IM1      25       IM1      H1       HDA3A    0.940000E-01   1.00800           0   0.00000       0.00000    
      6559 IM1      25       IM1      H2       HDA3A    0.940000E-01   1.00800           0   0.00000       0.00000    
      6560 IM1      25       IM1      H3       HDA3A    0.940000E-01   1.00800           0   0.00000       0.00000    
      6561 IM1      25       IM1      N1       ND2R5A    1.92920       13.6070           0  -1.06300       1.30000    
      6562 IM1      25       IM1      DN1      DRUD     -1.78920      0.400000           0   0.00000       0.00000    
      6563 IM1      25       IM1      C2       CD2R5A    1.66810       11.6110           0  -1.37800       1.30000    
      6564 IM1      25       IM1      DC2      DRUD     -2.03710      0.400000           0   0.00000       0.00000    
      6565 IM1      25       IM1      H4       HDR5A    0.150000       1.00800           0   0.00000       0.00000    
      6566 IM1      25       IM1      C3       CD2R5A    2.22510       11.6110           0  -1.37800       1.30000    
      6567 IM1      25       IM1      DC3      DRUD     -2.03710      0.400000           0   0.00000       0.00000    
      6568 IM1      25       IM1      H5       HDR5A    0.530000E-01   1.00800           0   0.00000       0.00000    
      6569 IM1      25       IM1      C4       CD2R5B    1.73480       11.6110           0 -0.868000       1.30000    
      6570 IM1      25       IM1      DC4      DRUD     -1.61680      0.400000           0   0.00000       0.00000    
      6571 IM1      25       IM1      H6       HDR5B    0.730000E-01   1.00800           0   0.00000       0.00000    
      6572 IM1      25       IM1      N2       ND2R5B    1.59050       13.6070           0 -0.840000       1.00000    
      6573 IM1      25       IM1      DN2      DRUD     -1.59050      0.400000           0   0.00000       0.00000    
      6574 IM1      25       IM1      H7       DUMH      0.00000       1.00800           0   0.00000       0.00000    
      6575 IM1      25       IM1      LPN21    LPD     -0.474000       0.00000          -1   0.00000       0.00000    
      6576 IM1      26       IM1      C1       CD33G     1.64330       11.6110           0  -1.08100       1.00000    
      6577 IM1      26       IM1      DC1      DRUD     -1.80430      0.400000           0   0.00000       0.00000    
      6578 IM1      26       IM1      H1       HDA3A    0.940000E-01   1.00800           0   0.00000       0.00000    
      6579 IM1      26       IM1      H2       HDA3A    0.940000E-01   1.00800           0   0.00000       0.00000    
      6580 IM1      26       IM1      H3       HDA3A    0.940000E-01   1.00800           0   0.00000       0.00000    
      6581 IM1      26       IM1      N1       ND2R5A    1.92920       13.6070           0  -1.06300       1.30000    
      6582 IM1      26       IM1      DN1      DRUD     -1.78920      0.400000           0   0.00000       0.00000    
      6583 IM1      26       IM1      C2       CD2R5A    1.66810       11.6110           0  -1.37800       1.30000    
      6584 IM1      26       IM1      DC2      DRUD     -2.03710      0.400000           0   0.00000       0.00000    
      6585 IM1      26       IM1      H4       HDR5A    0.150000       1.00800           0   0.00000       0.00000    
      6586 IM1      26       IM1      C3       CD2R5A    2.22510       11.6110           0  -1.37800       1.30000    
      6587 IM1      26       IM1      DC3      DRUD     -2.03710      0.400000           0   0.00000       0.00000    
      6588 IM1      26       IM1      H5       HDR5A    0.530000E-01   1.00800           0   0.00000       0.00000    
      6589 IM1      26       IM1      C4       CD2R5B    1.73480       11.6110           0 -0.868000       1.30000    
      6590 IM1      26       IM1      DC4      DRUD     -1.61680      0.400000           0   0.00000       0.00000    
      6591 IM1      26       IM1      H6       HDR5B    0.730000E-01   1.00800           0   0.00000       0.00000    
      6592 IM1      26       IM1      N2       ND2R5B    1.59050       13.6070           0 -0.840000       1.00000    
      6593 IM1      26       IM1      DN2      DRUD     -1.59050      0.400000           0   0.00000       0.00000    
      6594 IM1      26       IM1      H7       DUMH      0.00000       1.00800           0   0.00000       0.00000    
      6595 IM1      26       IM1      LPN21    LPD     -0.474000       0.00000          -1   0.00000       0.00000    
      6596 IM1      27       IM1      C1       CD33G     1.64330       11.6110           0  -1.08100       1.00000    
      6597 IM1      27       IM1      DC1      DRUD     -1.80430      0.400000           0   0.00000       0.00000    
      6598 IM1      27       IM1      H1       HDA3A    0.940000E-01   1.00800           0   0.00000       0.00000    
      6599 IM1      27       IM1      H2       HDA3A    0.940000E-01   1.00800           0   0.00000       0.00000    
      6600 IM1      27       IM1      H3       HDA3A    0.940000E-01   1.00800           0   0.00000       0.00000    
      6601 IM1      27       IM1      N1       ND2R5A    1.92920       13.6070           0  -1.06300       1.30000    
      6602 IM1      27       IM1      DN1      DRUD     -1.78920      0.400000           0   0.00000       0.00000    
      6603 IM1      27       IM1      C2       CD2R5A    1.66810       11.6110           0  -1.37800       1.30000    
      6604 IM1      27       IM1      DC2      DRUD     -2.03710      0.400000           0   0.00000       0.00000    
      6605 IM1      27       IM1      H4       HDR5A    0.150000       1.00800           0   0.00000       0.00000    
      6606 IM1      27       IM1      C3       CD2R5A    2.22510       11.6110           0  -1.37800       1.30000    
      6607 IM1      27       IM1      DC3      DRUD     -2.03710      0.400000           0   0.00000       0.00000    
      6608 IM1      27       IM1      H5       HDR5A    0.530000E-01   1.00800           0   0.00000       0.00000    
      6609 IM1      27       IM1      C4       CD2R5B    1.73480       11.6110           0 -0.868000       1.30000    
      6610 IM1      27       IM1      DC4      DRUD     -1.61680      0.400000           0   0.00000       0.00000    
      6611 IM1      27       IM1      H6       HDR5B    0.730000E-01   1.00800           0   0.00000       0.00000    
      6612 IM1      27       IM1      N2       ND2R5B    1.59050       13.6070           0 -0.840000       1.00000    
      6613 IM1      27       IM1      DN2      DRUD     -1.59050      0.400000           0   0.00000       0.00000    
      6614 IM1      27       IM1      H7       DUMH      0.00000       1.00800           0   0.00000       0.00000    
      6615 IM1      27       IM1      LPN21    LPD     -0.474000       0.00000          -1   0.00000       0.00000    
      6616 IM1      28       IM1      C1       CD33G     1.64330       11.6110           0  -1.08100       1.00000    
      6617 IM1      28       IM1      DC1      DRUD     -1.80430      0.400000           0   0.00000       0.00000    
      6618 IM1      28       IM1      H1       HDA3A    0.940000E-01   1.00800           0   0.00000       0.00000    
      6619 IM1      28       IM1      H2       HDA3A    0.940000E-01   1.00800           0   0.00000       0.00000    
      6620 IM1      28       IM1      H3       HDA3A    0.940000E-01   1.00800           0   0.00000       0.00000    
      6621 IM1      28       IM1      N1       ND2R5A    1.92920       13.6070           0  -1.06300       1.30000    
      6622 IM1      28       IM1      DN1      DRUD     -1.78920      0.400000           0   0.00000       0.00000    
      6623 IM1      28       IM1      C2       CD2R5A    1.66810       11.6110           0  -1.37800       1.30000    
      6624 IM1      28       IM1      DC2      DRUD     -2.03710      0.400000           0   0.00000       0.00000    
      6625 IM1      28       IM1      H4       HDR5A    0.150000       1.00800           0   0.00000       0.00000    
      6626 IM1      28       IM1      C3       CD2R5A    2.22510       11.6110           0  -1.37800       1.30000    
      6627 IM1      28       IM1      DC3      DRUD     -2.03710      0.400000           0   0.00000       0.00000    
      6628 IM1      28       IM1      H5       HDR5A    0.530000E-01   1.00800           0   0.00000       0.00000    
      6629 IM1      28       IM1      C4       CD2R5B    1.73480       11.6110           0 -0.868000       1.30000    
      6630 IM1      28       IM1      DC4      DRUD     -1.61680      0.400000           0   0.00000       0.00000    
      6631 IM1      28       IM1      H6       HDR5B    0.730000E-01   1.00800           0   0.00000       0.00000    
      6632 IM1      28       IM1      N2       ND2R5B    1.59050       13.6070           0 -0.840000       1.00000    
      6633 IM1      28       IM1      DN2      DRUD     -1.59050      0.400000           0   0.00000       0.00000    
      6634 IM1      28       IM1      H7       DUMH      0.00000       1.00800           0   0.00000       0.00000    
      6635 IM1      28       IM1      LPN21    LPD     -0.474000       0.00000          -1   0.00000       0.00000    
      6636 IM1      29       IM1      C1       CD33G     1.64330       11.6110           0  -1.08100       1.00000    
      6637 IM1      29       IM1      DC1      DRUD     -1.80430      0.400000           0   0.00000       0.00000    
      6638 IM1      29       IM1      H1       HDA3A    0.940000E-01   1.00800           0   0.00000       0.00000    
      6639 IM1      29       IM1      H2       HDA3A    0.940000E-01   1.00800           0   0.00000       0.00000    
      6640 IM1      29       IM1      H3       HDA3A    0.940000E-01   1.00800           0   0.00000       0.00000    
      6641 IM1      29       IM1      N1       ND2R5A    1.92920       13.6070           0  -1.06300       1.30000    
      6642 IM1      29       IM1      DN1      DRUD     -1.78920      0.400000           0   0.00000       0.00000    
      6643 IM1      29       IM1      C2       CD2R5A    1.66810       11.6110           0  -1.37800       1.30000    
      6644 IM1      29       IM1      DC2      DRUD     -2.03710      0.400000           0   0.00000       0.00000    
      6645 IM1      29       IM1      H4       HDR5A    0.150000       1.00800           0   0.00000       0.00000    
      6646 IM1      29       IM1      C3       CD2R5A    2.22510       11.6110           0  -1.37800       1.30000    
      6647 IM1      29       IM1      DC3      DRUD     -2.03710      0.400000           0   0.00000       0.00000    
      6648 IM1      29       IM1      H5       HDR5A    0.530000E-01   1.00800           0   0.00000       0.00000    
      6649 IM1      29       IM1      C4       CD2R5B    1.73480       11.6110           0 -0.868000       1.30000    
      6650 IM1      29       IM1      DC4      DRUD     -1.61680      0.400000           0   0.00000       0.00000    
      6651 IM1      29       IM1      H6       HDR5B    0.730000E-01   1.00800           0   0.00000       0.00000    
      6652 IM1      29       IM1      N2       ND2R5B    1.59050       13.6070           0 -0.840000       1.00000    
      6653 IM1      29       IM1      DN2      DRUD     -1.59050      0.400000           0   0.00000       0.00000    
      6654 IM1      29       IM1      H7       DUMH      0.00000       1.00800           0   0.00000       0.00000    
      6655 IM1      29       IM1      LPN21    LPD     -0.474000       0.00000          -1   0.00000       0.00000    
      6656 IM1      30       IM1      C1       CD33G     1.64330       11.6110           0  -1.08100       1.00000    
      6657 IM1      30       IM1      DC1      DRUD     -1.80430      0.400000           0   0.00000       0.00000    
      6658 IM1      30       IM1      H1       HDA3A    0.940000E-01   1.00800           0   0.00000       0.00000    
      6659 IM1      30       IM1      H2       HDA3A    0.940000E-01   1.00800           0   0.00000       0.00000    
      6660 IM1      30       IM1      H3       HDA3A    0.940000E-01   1.00800           0   0.00000       0.00000    
      6661 IM1      30       IM1      N1       ND2R5A    1.92920       13.6070           0  -1.06300       1.30000    
      6662 IM1      30       IM1      DN1      DRUD     -1.78920      0.400000           0   0.00000       0.00000    
      6663 IM1      30       IM1      C2       CD2R5A    1.66810       11.6110           0  -1.37800       1.30000    
      6664 IM1      30       IM1      DC2      DRUD     -2.03710      0.400000           0   0.00000       0.00000    
      6665 IM1      30       IM1      H4       HDR5A    0.150000       1.00800           0   0.00000       0.00000    
      6666 IM1      30       IM1      C3       CD2R5A    2.22510       11.6110           0  -1.37800       1.30000    
      6667 IM1      30       IM1      DC3      DRUD     -2.03710      0.400000           0   0.00000       0.00000    
      6668 IM1      30       IM1      H5       HDR5A    0.530000E-01   1.00800           0   0.00000       0.00000    
      6669 IM1      30       IM1      C4       CD2R5B    1.73480       11.6110           0 -0.868000       1.30000    
      6670 IM1      30       IM1      DC4      DRUD     -1.61680      0.400000           0   0.00000       0.00000    
      6671 IM1      30       IM1      H6       HDR5B    0.730000E-01   1.00800           0   0.00000       0.00000    
      6672 IM1      30       IM1      N2       ND2R5B    1.59050       13.6070           0 -0.840000       1.00000    
      6673 IM1      30       IM1      DN2      DRUD     -1.59050      0.400000           0   0.00000       0.00000    
      6674 IM1      30       IM1      H7       DUMH      0.00000       1.00800           0   0.00000       0.00000    
      6675 IM1      30       IM1      LPN21    LPD     -0.474000       0.00000          -1   0.00000       0.00000    
      6676 IM1      31       IM1      C1       CD33G     1.64330       11.6110           0  -1.08100       1.00000    
      6677 IM1      31       IM1      DC1      DRUD     -1.80430      0.400000           0   0.00000       0.00000    
      6678 IM1      31       IM1      H1       HDA3A    0.940000E-01   1.00800           0   0.00000       0.00000    
      6679 IM1      31       IM1      H2       HDA3A    0.940000E-01   1.00800           0   0.00000       0.00000    
      6680 IM1      31       IM1      H3       HDA3A    0.940000E-01   1.00800           0   0.00000       0.00000    
      6681 IM1      31       IM1      N1       ND2R5A    1.92920       13.6070           0  -1.06300       1.30000    
      6682 IM1      31       IM1      DN1      DRUD     -1.78920      0.400000           0   0.00000       0.00000    
      6683 IM1      31       IM1      C2       CD2R5A    1.66810       11.6110           0  -1.37800       1.30000    
      6684 IM1      31       IM1      DC2      DRUD     -2.03710      0.400000           0   0.00000       0.00000    
      6685 IM1      31       IM1      H4       HDR5A    0.150000       1.00800           0   0.00000       0.00000    
      6686 IM1      31       IM1      C3       CD2R5A    2.22510       11.6110           0  -1.37800       1.30000    
      6687 IM1      31       IM1      DC3      DRUD     -2.03710      0.400000           0   0.00000       0.00000    
      6688 IM1      31       IM1      H5       HDR5A    0.530000E-01   1.00800           0   0.00000       0.00000    
      6689 IM1      31       IM1      C4       CD2R5B    1.73480       11.6110           0 -0.868000       1.30000    
      6690 IM1      31       IM1      DC4      DRUD     -1.61680      0.400000           0   0.00000       0.00000    
      6691 IM1      31       IM1      H6       HDR5B    0.730000E-01   1.00800           0   0.00000       0.00000    
      6692 IM1      31       IM1      N2       ND2R5B    1.59050       13.6070           0 -0.840000       1.00000    
      6693 IM1      31       IM1      DN2      DRUD     -1.59050      0.400000           0   0.00000       0.00000    
      6694 IM1      31       IM1      H7       DUMH      0.00000       1.00800           0   0.00000       0.00000    
      6695 IM1      31       IM1      LPN21    LPD     -0.474000       0.00000          -1   0.00000       0.00000    
      6696 IM1      32       IM1      C1       CD33G     1.64330       11.6110           0  -1.08100       1.00000    
      6697 IM1      32       IM1      DC1      DRUD     -1.80430      0.400000           0   0.00000       0.00000    
      6698 IM1      32       IM1      H1       HDA3A    0.940000E-01   1.00800           0   0.00000       0.00000    
      6699 IM1      32       IM1      H2       HDA3A    0.940000E-01   1.00800           0   0.00000       0.00000    
      6700 IM1      32       IM1      H3       HDA3A    0.940000E-01   1.00800           0   0.00000       0.00000    
      6701 IM1      32       IM1      N1       ND2R5A    1.92920       13.6070           0  -1.06300       1.30000    
      6702 IM1      32       IM1      DN1      DRUD     -1.78920      0.400000           0   0.00000       0.00000    
      6703 IM1      32       IM1      C2       CD2R5A    1.66810       11.6110           0  -1.37800       1.30000    
      6704 IM1      32       IM1      DC2      DRUD     -2.03710      0.400000           0   0.00000       0.00000    
      6705 IM1      32       IM1      H4       HDR5A    0.150000       1.00800           0   0.00000       0.00000    
      6706 IM1      32       IM1      C3       CD2R5A    2.22510       11.6110           0  -1.37800       1.30000    
      6707 IM1      32       IM1      DC3      DRUD     -2.03710      0.400000           0   0.00000       0.00000    
      6708 IM1      32       IM1      H5       HDR5A    0.530000E-01   1.00800           0   0.00000       0.00000    
      6709 IM1      32       IM1      C4       CD2R5B    1.73480       11.6110           0 -0.868000       1.30000    
      6710 IM1      32       IM1      DC4      DRUD     -1.61680      0.400000           0   0.00000       0.00000    
      6711 IM1      32       IM1      H6       HDR5B    0.730000E-01   1.00800           0   0.00000       0.00000    
      6712 IM1      32       IM1      N2       ND2R5B    1.59050       13.6070           0 -0.840000       1.00000    
      6713 IM1      32       IM1      DN2      DRUD     -1.59050      0.400000           0   0.00000       0.00000    
      6714 IM1      32       IM1      H7       DUMH      0.00000       1.00800           0   0.00000       0.00000    
      6715 IM1      32       IM1      LPN21    LPD     -0.474000       0.00000          -1   0.00000       0.00000    
      6716 IM1      33       IM1      C1       CD33G     1.64330       11.6110           0  -1.08100       1.00000    
      6717 IM1      33       IM1      DC1      DRUD     -1.80430      0.400000           0   0.00000       0.00000    
      6718 IM1      33       IM1      H1       HDA3A    0.940000E-01   1.00800           0   0.00000       0.00000    
      6719 IM1      33       IM1      H2       HDA3A    0.940000E-01   1.00800           0   0.00000       0.00000    
      6720 IM1      33       IM1      H3       HDA3A    0.940000E-01   1.00800           0   0.00000       0.00000    
      6721 IM1      33       IM1      N1       ND2R5A    1.92920       13.6070           0  -1.06300       1.30000    
      6722 IM1      33       IM1      DN1      DRUD     -1.78920      0.400000           0   0.00000       0.00000    
      6723 IM1      33       IM1      C2       CD2R5A    1.66810       11.6110           0  -1.37800       1.30000    
      6724 IM1      33       IM1      DC2      DRUD     -2.03710      0.400000           0   0.00000       0.00000    
      6725 IM1      33       IM1      H4       HDR5A    0.150000       1.00800           0   0.00000       0.00000    
      6726 IM1      33       IM1      C3       CD2R5A    2.22510       11.6110           0  -1.37800       1.30000    
      6727 IM1      33       IM1      DC3      DRUD     -2.03710      0.400000           0   0.00000       0.00000    
      6728 IM1      33       IM1      H5       HDR5A    0.530000E-01   1.00800           0   0.00000       0.00000    
      6729 IM1      33       IM1      C4       CD2R5B    1.73480       11.6110           0 -0.868000       1.30000    
      6730 IM1      33       IM1      DC4      DRUD     -1.61680      0.400000           0   0.00000       0.00000    
      6731 IM1      33       IM1      H6       HDR5B    0.730000E-01   1.00800           0   0.00000       0.00000    
      6732 IM1      33       IM1      N2       ND2R5B    1.59050       13.6070           0 -0.840000       1.00000    
      6733 IM1      33       IM1      DN2      DRUD     -1.59050      0.400000           0   0.00000       0.00000    
      6734 IM1      33       IM1      H7       DUMH      0.00000       1.00800           0   0.00000       0.00000    
      6735 IM1      33       IM1      LPN21    LPD     -0.474000       0.00000          -1   0.00000       0.00000    
      6736 IM1      34       IM1      C1       CD33G     1.64330       11.6110           0  -1.08100       1.00000    
      6737 IM1      34       IM1      DC1      DRUD     -1.80430      0.400000           0   0.00000       0.00000    
      6738 IM1      34       IM1      H1       HDA3A    0.940000E-01   1.00800           0   0.00000       0.00000    
      6739 IM1      34       IM1      H2       HDA3A    0.940000E-01   1.00800           0   0.00000       0.00000    
      6740 IM1      34       IM1      H3       HDA3A    0.940000E-01   1.00800           0   0.00000       0.00000    
      6741 IM1      34       IM1      N1       ND2R5A    1.92920       13.6070           0  -1.06300       1.30000    
      6742 IM1      34       IM1      DN1      DRUD     -1.78920      0.400000           0   0.00000       0.00000    
      6743 IM1      34       IM1      C2       CD2R5A    1.66810       11.6110           0  -1.37800       1.30000    
      6744 IM1      34       IM1      DC2      DRUD     -2.03710      0.400000           0   0.00000       0.00000    
      6745 IM1      34       IM1      H4       HDR5A    0.150000       1.00800           0   0.00000       0.00000    
      6746 IM1      34       IM1      C3       CD2R5A    2.22510       11.6110           0  -1.37800       1.30000    
      6747 IM1      34       IM1      DC3      DRUD     -2.03710      0.400000           0   0.00000       0.00000    
      6748 IM1      34       IM1      H5       HDR5A    0.530000E-01   1.00800           0   0.00000       0.00000    
      6749 IM1      34       IM1      C4       CD2R5B    1.73480       11.6110           0 -0.868000       1.30000    
      6750 IM1      34       IM1      DC4      DRUD     -1.61680      0.400000           0   0.00000       0.00000    
      6751 IM1      34       IM1      H6       HDR5B    0.730000E-01   1.00800           0   0.00000       0.00000    
      6752 IM1      34       IM1      N2       ND2R5B    1.59050       13.6070           0 -0.840000       1.00000    
      6753 IM1      34       IM1      DN2      DRUD     -1.59050      0.400000           0   0.00000       0.00000    
      6754 IM1      34       IM1      H7       DUMH      0.00000       1.00800           0   0.00000       0.00000    
      6755 IM1      34       IM1      LPN21    LPD     -0.474000       0.00000          -1   0.00000       0.00000    
      6756 IM1      35       IM1      C1       CD33G     1.64330       11.6110           0  -1.08100       1.00000    
      6757 IM1      35       IM1      DC1      DRUD     -1.80430      0.400000           0   0.00000       0.00000    
      6758 IM1      35       IM1      H1       HDA3A    0.940000E-01   1.00800           0   0.00000       0.00000    
      6759 IM1      35       IM1      H2       HDA3A    0.940000E-01   1.00800           0   0.00000       0.00000    
      6760 IM1      35       IM1      H3       HDA3A    0.940000E-01   1.00800           0   0.00000       0.00000    
      6761 IM1      35       IM1      N1       ND2R5A    1.92920       13.6070           0  -1.06300       1.30000    
      6762 IM1      35       IM1      DN1      DRUD     -1.78920      0.400000           0   0.00000       0.00000    
      6763 IM1      35       IM1      C2       CD2R5A    1.66810       11.6110           0  -1.37800       1.30000    
      6764 IM1      35       IM1      DC2      DRUD     -2.03710      0.400000           0   0.00000       0.00000    
      6765 IM1      35       IM1      H4       HDR5A    0.150000       1.00800           0   0.00000       0.00000    
      6766 IM1      35       IM1      C3       CD2R5A    2.22510       11.6110           0  -1.37800       1.30000    
      6767 IM1      35       IM1      DC3      DRUD     -2.03710      0.400000           0   0.00000       0.00000    
      6768 IM1      35       IM1      H5       HDR5A    0.530000E-01   1.00800           0   0.00000       0.00000    
      6769 IM1      35       IM1      C4       CD2R5B    1.73480       11.6110           0 -0.868000       1.30000    
      6770 IM1      35       IM1      DC4      DRUD     -1.61680      0.400000           0   0.00000       0.00000    
      6771 IM1      35       IM1      H6       HDR5B    0.730000E-01   1.00800           0   0.00000       0.00000    
      6772 IM1      35       IM1      N2       ND2R5B    1.59050       13.6070           0 -0.840000       1.00000    
      6773 IM1      35       IM1      DN2      DRUD     -1.59050      0.400000           0   0.00000       0.00000    
      6774 IM1      35       IM1      H7       DUMH      0.00000       1.00800           0   0.00000       0.00000    
      6775 IM1      35       IM1      LPN21    LPD     -0.474000       0.00000          -1   0.00000       0.00000    
      6776 IM1      36       IM1      C1       CD33G     1.64330       11.6110           0  -1.08100       1.00000    
      6777 IM1      36       IM1      DC1      DRUD     -1.80430      0.400000           0   0.00000       0.00000    
      6778 IM1      36       IM1      H1       HDA3A    0.940000E-01   1.00800           0   0.00000       0.00000    
      6779 IM1      36       IM1      H2       HDA3A    0.940000E-01   1.00800           0   0.00000       0.00000    
      6780 IM1      36       IM1      H3       HDA3A    0.940000E-01   1.00800           0   0.00000       0.00000    
      6781 IM1      36       IM1      N1       ND2R5A    1.92920       13.6070           0  -1.06300       1.30000    
      6782 IM1      36       IM1      DN1      DRUD     -1.78920      0.400000           0   0.00000       0.00000    
      6783 IM1      36       IM1      C2       CD2R5A    1.66810       11.6110           0  -1.37800       1.30000    
      6784 IM1      36       IM1      DC2      DRUD     -2.03710      0.400000           0   0.00000       0.00000    
      6785 IM1      36       IM1      H4       HDR5A    0.150000       1.00800           0   0.00000       0.00000    
      6786 IM1      36       IM1      C3       CD2R5A    2.22510       11.6110           0  -1.37800       1.30000    
      6787 IM1      36       IM1      DC3      DRUD     -2.03710      0.400000           0   0.00000       0.00000    
      6788 IM1      36       IM1      H5       HDR5A    0.530000E-01   1.00800           0   0.00000       0.00000    
      6789 IM1      36       IM1      C4       CD2R5B    1.73480       11.6110           0 -0.868000       1.30000    
      6790 IM1      36       IM1      DC4      DRUD     -1.61680      0.400000           0   0.00000       0.00000    
      6791 IM1      36       IM1      H6       HDR5B    0.730000E-01   1.00800           0   0.00000       0.00000    
      6792 IM1      36       IM1      N2       ND2R5B    1.59050       13.6070           0 -0.840000       1.00000    
      6793 IM1      36       IM1      DN2      DRUD     -1.59050      0.400000           0   0.00000       0.00000    
      6794 IM1      36       IM1      H7       DUMH      0.00000       1.00800           0   0.00000       0.00000    
      6795 IM1      36       IM1      LPN21    LPD     -0.474000       0.00000          -1   0.00000       0.00000    
      6796 IM1      37       IM1      C1       CD33G     1.64330       11.6110           0  -1.08100       1.00000    
      6797 IM1      37       IM1      DC1      DRUD     -1.80430      0.400000           0   0.00000       0.00000    
      6798 IM1      37       IM1      H1       HDA3A    0.940000E-01   1.00800           0   0.00000       0.00000    
      6799 IM1      37       IM1      H2       HDA3A    0.940000E-01   1.00800           0   0.00000       0.00000    
      6800 IM1      37       IM1      H3       HDA3A    0.940000E-01   1.00800           0   0.00000       0.00000    
      6801 IM1      37       IM1      N1       ND2R5A    1.92920       13.6070           0  -1.06300       1.30000    
      6802 IM1      37       IM1      DN1      DRUD     -1.78920      0.400000           0   0.00000       0.00000    
      6803 IM1      37       IM1      C2       CD2R5A    1.66810       11.6110           0  -1.37800       1.30000    
      6804 IM1      37       IM1      DC2      DRUD     -2.03710      0.400000           0   0.00000       0.00000    
      6805 IM1      37       IM1      H4       HDR5A    0.150000       1.00800           0   0.00000       0.00000    
      6806 IM1      37       IM1      C3       CD2R5A    2.22510       11.6110           0  -1.37800       1.30000    
      6807 IM1      37       IM1      DC3      DRUD     -2.03710      0.400000           0   0.00000       0.00000    
      6808 IM1      37       IM1      H5       HDR5A    0.530000E-01   1.00800           0   0.00000       0.00000    
      6809 IM1      37       IM1      C4       CD2R5B    1.73480       11.6110           0 -0.868000       1.30000    
      6810 IM1      37       IM1      DC4      DRUD     -1.61680      0.400000           0   0.00000       0.00000    
      6811 IM1      37       IM1      H6       HDR5B    0.730000E-01   1.00800           0   0.00000       0.00000    
      6812 IM1      37       IM1      N2       ND2R5B    1.59050       13.6070           0 -0.840000       1.00000    
      6813 IM1      37       IM1      DN2      DRUD     -1.59050      0.400000           0   0.00000       0.00000    
      6814 IM1      37       IM1      H7       DUMH      0.00000       1.00800           0   0.00000       0.00000    
      6815 IM1      37       IM1      LPN21    LPD     -0.474000       0.00000          -1   0.00000       0.00000    
      6816 IM1      38       IM1      C1       CD33G     1.64330       11.6110           0  -1.08100       1.00000    
      6817 IM1      38       IM1      DC1      DRUD     -1.80430      0.400000           0   0.00000       0.00000    
      6818 IM1      38       IM1      H1       HDA3A    0.940000E-01   1.00800           0   0.00000       0.00000    
      6819 IM1      38       IM1      H2       HDA3A    0.940000E-01   1.00800           0   0.00000       0.00000    
      6820 IM1      38       IM1      H3       HDA3A    0.940000E-01   1.00800           0   0.00000       0.00000    
      6821 IM1      38       IM1      N1       ND2R5A    1.92920       13.6070           0  -1.06300       1.30000    
      6822 IM1      38       IM1      DN1      DRUD     -1.78920      0.400000           0   0.00000       0.00000    
      6823 IM1      38       IM1      C2       CD2R5A    1.66810       11.6110           0  -1.37800       1.30000    
      6824 IM1      38       IM1      DC2      DRUD     -2.03710      0.400000           0   0.00000       0.00000    
      6825 IM1      38       IM1      H4       HDR5A    0.150000       1.00800           0   0.00000       0.00000    
      6826 IM1      38       IM1      C3       CD2R5A    2.22510       11.6110           0  -1.37800       1.30000    
      6827 IM1      38       IM1      DC3      DRUD     -2.03710      0.400000           0   0.00000       0.00000    
      6828 IM1      38       IM1      H5       HDR5A    0.530000E-01   1.00800           0   0.00000       0.00000    
      6829 IM1      38       IM1      C4       CD2R5B    1.73480       11.6110           0 -0.868000       1.30000    
      6830 IM1      38       IM1      DC4      DRUD     -1.61680      0.400000           0   0.00000       0.00000    
      6831 IM1      38       IM1      H6       HDR5B    0.730000E-01   1.00800           0   0.00000       0.00000    
      6832 IM1      38       IM1      N2       ND2R5B    1.59050       13.6070           0 -0.840000       1.00000    
      6833 IM1      38       IM1      DN2      DRUD     -1.59050      0.400000           0   0.00000       0.00000    
      6834 IM1      38       IM1      H7       DUMH      0.00000       1.00800           0   0.00000       0.00000    
      6835 IM1      38       IM1      LPN21    LPD     -0.474000       0.00000          -1   0.00000       0.00000    
      6836 IM1      39       IM1      C1       CD33G     1.64330       11.6110           0  -1.08100       1.00000    
      6837 IM1      39       IM1      DC1      DRUD     -1.80430      0.400000           0   0.00000       0.00000    
      6838 IM1      39       IM1      H1       HDA3A    0.940000E-01   1.00800           0   0.00000       0.00000    
      6839 IM1      39       IM1      H2       HDA3A    0.940000E-01   1.00800           0   0.00000       0.00000    
      6840 IM1      39       IM1      H3       HDA3A    0.940000E-01   1.00800           0   0.00000       0.00000    
      6841 IM1      39       IM1      N1       ND2R5A    1.92920       13.6070           0  -1.06300       1.30000    
      6842 IM1      39       IM1      DN1      DRUD     -1.78920      0.400000           0   0.00000       0.00000    
      6843 IM1      39       IM1      C2       CD2R5A    1.66810       11.6110           0  -1.37800       1.30000    
      6844 IM1      39       IM1      DC2      DRUD     -2.03710      0.400000           0   0.00000       0.00000    
      6845 IM1      39       IM1      H4       HDR5A    0.150000       1.00800           0   0.00000       0.00000    
      6846 IM1      39       IM1      C3       CD2R5A    2.22510       11.6110           0  -1.37800       1.30000    
      6847 IM1      39       IM1      DC3      DRUD     -2.03710      0.400000           0   0.00000       0.00000    
      6848 IM1      39       IM1      H5       HDR5A    0.530000E-01   1.00800           0   0.00000       0.00000    
      6849 IM1      39       IM1      C4       CD2R5B    1.73480       11.6110           0 -0.868000       1.30000    
      6850 IM1      39       IM1      DC4      DRUD     -1.61680      0.400000           0   0.00000       0.00000    
      6851 IM1      39       IM1      H6       HDR5B    0.730000E-01   1.00800           0   0.00000       0.00000    
      6852 IM1      39       IM1      N2       ND2R5B    1.59050       13.6070           0 -0.840000       1.00000    
      6853 IM1      39       IM1      DN2      DRUD     -1.59050      0.400000           0   0.00000       0.00000    
      6854 IM1      39       IM1      H7       DUMH      0.00000       1.00800           0   0.00000       0.00000    
      6855 IM1      39       IM1      LPN21    LPD     -0.474000       0.00000          -1   0.00000       0.00000    
      6856 IM1      40       IM1      C1       CD33G     1.64330       11.6110           0  -1.08100       1.00000    
      6857 IM1      40       IM1      DC1      DRUD     -1.80430      0.400000           0   0.00000       0.00000    
      6858 IM1      40       IM1      H1       HDA3A    0.940000E-01   1.00800           0   0.00000       0.00000    
      6859 IM1      40       IM1      H2       HDA3A    0.940000E-01   1.00800           0   0.00000       0.00000    
      6860 IM1      40       IM1      H3       HDA3A    0.940000E-01   1.00800           0   0.00000       0.00000    
      6861 IM1      40       IM1      N1       ND2R5A    1.92920       13.6070           0  -1.06300       1.30000    
      6862 IM1      40       IM1      DN1      DRUD     -1.78920      0.400000           0   0.00000       0.00000    
      6863 IM1      40       IM1      C2       CD2R5A    1.66810       11.6110           0  -1.37800       1.30000    
      6864 IM1      40       IM1      DC2      DRUD     -2.03710      0.400000           0   0.00000       0.00000    
      6865 IM1      40       IM1      H4       HDR5A    0.150000       1.00800           0   0.00000       0.00000    
      6866 IM1      40       IM1      C3       CD2R5A    2.22510       11.6110           0  -1.37800       1.30000    
      6867 IM1      40       IM1      DC3      DRUD     -2.03710      0.400000           0   0.00000       0.00000    
      6868 IM1      40       IM1      H5       HDR5A    0.530000E-01   1.00800           0   0.00000       0.00000    
      6869 IM1      40       IM1      C4       CD2R5B    1.73480       11.6110           0 -0.868000       1.30000    
      6870 IM1      40       IM1      DC4      DRUD     -1.61680      0.400000           0   0.00000       0.00000    
      6871 IM1      40       IM1      H6       HDR5B    0.730000E-01   1.00800           0   0.00000       0.00000    
      6872 IM1      40       IM1      N2       ND2R5B    1.59050       13.6070           0 -0.840000       1.00000    
      6873 IM1      40       IM1      DN2      DRUD     -1.59050      0.400000           0   0.00000       0.00000    
      6874 IM1      40       IM1      H7       DUMH      0.00000       1.00800           0   0.00000       0.00000    
      6875 IM1      40       IM1      LPN21    LPD     -0.474000       0.00000          -1   0.00000       0.00000    
      6876 IM1      41       IM1      C1       CD33G     1.64330       11.6110           0  -1.08100       1.00000    
      6877 IM1      41       IM1      DC1      DRUD     -1.80430      0.400000           0   0.00000       0.00000    
      6878 IM1      41       IM1      H1       HDA3A    0.940000E-01   1.00800           0   0.00000       0.00000    
      6879 IM1      41       IM1      H2       HDA3A    0.940000E-01   1.00800           0   0.00000       0.00000    
      6880 IM1      41       IM1      H3       HDA3A    0.940000E-01   1.00800           0   0.00000       0.00000    
      6881 IM1      41       IM1      N1       ND2R5A    1.92920       13.6070           0  -1.06300       1.30000    
      6882 IM1      41       IM1      DN1      DRUD     -1.78920      0.400000           0   0.00000       0.00000    
      6883 IM1      41       IM1      C2       CD2R5A    1.66810       11.6110           0  -1.37800       1.30000    
      6884 IM1      41       IM1      DC2      DRUD     -2.03710      0.400000           0   0.00000       0.00000    
      6885 IM1      41       IM1      H4       HDR5A    0.150000       1.00800           0   0.00000       0.00000    
      6886 IM1      41       IM1      C3       CD2R5A    2.22510       11.6110           0  -1.37800       1.30000    
      6887 IM1      41       IM1      DC3      DRUD     -2.03710      0.400000           0   0.00000       0.00000    
      6888 IM1      41       IM1      H5       HDR5A    0.530000E-01   1.00800           0   0.00000       0.00000    
      6889 IM1      41       IM1      C4       CD2R5B    1.73480       11.6110           0 -0.868000       1.30000    
      6890 IM1      41       IM1      DC4      DRUD     -1.61680      0.400000           0   0.00000       0.00000    
      6891 IM1      41       IM1      H6       HDR5B    0.730000E-01   1.00800           0   0.00000       0.00000    
      6892 IM1      41       IM1      N2       ND2R5B    1.59050       13.6070           0 -0.840000       1.00000    
      6893 IM1      41       IM1      DN2      DRUD     -1.59050      0.400000           0   0.00000       0.00000    
      6894 IM1      41       IM1      H7       DUMH      0.00000       1.00800           0   0.00000       0.00000    
      6895 IM1      41       IM1      LPN21    LPD     -0.474000       0.00000          -1   0.00000       0.00000    
      6896 IM1      42       IM1      C1       CD33G     1.64330       11.6110           0  -1.08100       1.00000    
      6897 IM1      42       IM1      DC1      DRUD     -1.80430      0.400000           0   0.00000       0.00000    
      6898 IM1      42       IM1      H1       HDA3A    0.940000E-01   1.00800           0   0.00000       0.00000    
      6899 IM1      42       IM1      H2       HDA3A    0.940000E-01   1.00800           0   0.00000       0.00000    
      6900 IM1      42       IM1      H3       HDA3A    0.940000E-01   1.00800           0   0.00000       0.00000    
      6901 IM1      42       IM1      N1       ND2R5A    1.92920       13.6070           0  -1.06300       1.30000    
      6902 IM1      42       IM1      DN1      DRUD     -1.78920      0.400000           0   0.00000       0.00000    
      6903 IM1      42       IM1      C2       CD2R5A    1.66810       11.6110           0  -1.37800       1.30000    
      6904 IM1      42       IM1      DC2      DRUD     -2.03710      0.400000           0   0.00000       0.00000    
      6905 IM1      42       IM1      H4       HDR5A    0.150000       1.00800           0   0.00000       0.00000    
      6906 IM1      42       IM1      C3       CD2R5A    2.22510       11.6110           0  -1.37800       1.30000    
      6907 IM1      42       IM1      DC3      DRUD     -2.03710      0.400000           0   0.00000       0.00000    
      6908 IM1      42       IM1      H5       HDR5A    0.530000E-01   1.00800           0   0.00000       0.00000    
      6909 IM1      42       IM1      C4       CD2R5B    1.73480       11.6110           0 -0.868000       1.30000    
      6910 IM1      42       IM1      DC4      DRUD     -1.61680      0.400000           0   0.00000       0.00000    
      6911 IM1      42       IM1      H6       HDR5B    0.730000E-01   1.00800           0   0.00000       0.00000    
      6912 IM1      42       IM1      N2       ND2R5B    1.59050       13.6070           0 -0.840000       1.00000    
      6913 IM1      42       IM1      DN2      DRUD     -1.59050      0.400000           0   0.00000       0.00000    
      6914 IM1      42       IM1      H7       DUMH      0.00000       1.00800           0   0.00000       0.00000    
      6915 IM1      42       IM1      LPN21    LPD     -0.474000       0.00000          -1   0.00000       0.00000    
      6916 IM1      43       IM1      C1       CD33G     1.64330       11.6110           0  -1.08100       1.00000    
      6917 IM1      43       IM1      DC1      DRUD     -1.80430      0.400000           0   0.00000       0.00000    
      6918 IM1      43       IM1      H1       HDA3A    0.940000E-01   1.00800           0   0.00000       0.00000    
      6919 IM1      43       IM1      H2       HDA3A    0.940000E-01   1.00800           0   0.00000       0.00000    
      6920 IM1      43       IM1      H3       HDA3A    0.940000E-01   1.00800           0   0.00000       0.00000    
      6921 IM1      43       IM1      N1       ND2R5A    1.92920       13.6070           0  -1.06300       1.30000    
      6922 IM1      43       IM1      DN1      DRUD     -1.78920      0.400000           0   0.00000       0.00000    
      6923 IM1      43       IM1      C2       CD2R5A    1.66810       11.6110           0  -1.37800       1.30000    
      6924 IM1      43       IM1      DC2      DRUD     -2.03710      0.400000           0   0.00000       0.00000    
      6925 IM1      43       IM1      H4       HDR5A    0.150000       1.00800           0   0.00000       0.00000    
      6926 IM1      43       IM1      C3       CD2R5A    2.22510       11.6110           0  -1.37800       1.30000    
      6927 IM1      43       IM1      DC3      DRUD     -2.03710      0.400000           0   0.00000       0.00000    
      6928 IM1      43       IM1      H5       HDR5A    0.530000E-01   1.00800           0   0.00000       0.00000    
      6929 IM1      43       IM1      C4       CD2R5B    1.73480       11.6110           0 -0.868000       1.30000    
      6930 IM1      43       IM1      DC4      DRUD     -1.61680      0.400000           0   0.00000       0.00000    
      6931 IM1      43       IM1      H6       HDR5B    0.730000E-01   1.00800           0   0.00000       0.00000    
      6932 IM1      43       IM1      N2       ND2R5B    1.59050       13.6070           0 -0.840000       1.00000    
      6933 IM1      43       IM1      DN2      DRUD     -1.59050      0.400000           0   0.00000       0.00000    
      6934 IM1      43       IM1      H7       DUMH      0.00000       1.00800           0   0.00000       0.00000    
      6935 IM1      43       IM1      LPN21    LPD     -0.474000       0.00000          -1   0.00000       0.00000    
      6936 IM1      44       IM1      C1       CD33G     1.64330       11.6110           0  -1.08100       1.00000    
      6937 IM1      44       IM1      DC1      DRUD     -1.80430      0.400000           0   0.00000       0.00000    
      6938 IM1      44       IM1      H1       HDA3A    0.940000E-01   1.00800           0   0.00000       0.00000    
      6939 IM1      44       IM1      H2       HDA3A    0.940000E-01   1.00800           0   0.00000       0.00000    
      6940 IM1      44       IM1      H3       HDA3A    0.940000E-01   1.00800           0   0.00000       0.00000    
      6941 IM1      44       IM1      N1       ND2R5A    1.92920       13.6070           0  -1.06300       1.30000    
      6942 IM1      44       IM1      DN1      DRUD     -1.78920      0.400000           0   0.00000       0.00000    
      6943 IM1      44       IM1      C2       CD2R5A    1.66810       11.6110           0  -1.37800       1.30000    
      6944 IM1      44       IM1      DC2      DRUD     -2.03710      0.400000           0   0.00000       0.00000    
      6945 IM1      44       IM1      H4       HDR5A    0.150000       1.00800           0   0.00000       0.00000    
      6946 IM1      44       IM1      C3       CD2R5A    2.22510       11.6110           0  -1.37800       1.30000    
      6947 IM1      44       IM1      DC3      DRUD     -2.03710      0.400000           0   0.00000       0.00000    
      6948 IM1      44       IM1      H5       HDR5A    0.530000E-01   1.00800           0   0.00000       0.00000    
      6949 IM1      44       IM1      C4       CD2R5B    1.73480       11.6110           0 -0.868000       1.30000    
      6950 IM1      44       IM1      DC4      DRUD     -1.61680      0.400000           0   0.00000       0.00000    
      6951 IM1      44       IM1      H6       HDR5B    0.730000E-01   1.00800           0   0.00000       0.00000    
      6952 IM1      44       IM1      N2       ND2R5B    1.59050       13.6070           0 -0.840000       1.00000    
      6953 IM1      44       IM1      DN2      DRUD     -1.59050      0.400000           0   0.00000       0.00000    
      6954 IM1      44       IM1      H7       DUMH      0.00000       1.00800           0   0.00000       0.00000    
      6955 IM1      44       IM1      LPN21    LPD     -0.474000       0.00000          -1   0.00000       0.00000    
      6956 IM1      45       IM1      C1       CD33G     1.64330       11.6110           0  -1.08100       1.00000    
      6957 IM1      45       IM1      DC1      DRUD     -1.80430      0.400000           0   0.00000       0.00000    
      6958 IM1      45       IM1      H1       HDA3A    0.940000E-01   1.00800           0   0.00000       0.00000    
      6959 IM1      45       IM1      H2       HDA3A    0.940000E-01   1.00800           0   0.00000       0.00000    
      6960 IM1      45       IM1      H3       HDA3A    0.940000E-01   1.00800           0   0.00000       0.00000    
      6961 IM1      45       IM1      N1       ND2R5A    1.92920       13.6070           0  -1.06300       1.30000    
      6962 IM1      45       IM1      DN1      DRUD     -1.78920      0.400000           0   0.00000       0.00000    
      6963 IM1      45       IM1      C2       CD2R5A    1.66810       11.6110           0  -1.37800       1.30000    
      6964 IM1      45       IM1      DC2      DRUD     -2.03710      0.400000           0   0.00000       0.00000    
      6965 IM1      45       IM1      H4       HDR5A    0.150000       1.00800           0   0.00000       0.00000    
      6966 IM1      45       IM1      C3       CD2R5A    2.22510       11.6110           0  -1.37800       1.30000    
      6967 IM1      45       IM1      DC3      DRUD     -2.03710      0.400000           0   0.00000       0.00000    
      6968 IM1      45       IM1      H5       HDR5A    0.530000E-01   1.00800           0   0.00000       0.00000    
      6969 IM1      45       IM1      C4       CD2R5B    1.73480       11.6110           0 -0.868000       1.30000    
      6970 IM1      45       IM1      DC4      DRUD     -1.61680      0.400000           0   0.00000       0.00000    
      6971 IM1      45       IM1      H6       HDR5B    0.730000E-01   1.00800           0   0.00000       0.00000    
      6972 IM1      45       IM1      N2       ND2R5B    1.59050       13.6070           0 -0.840000       1.00000    
      6973 IM1      45       IM1      DN2      DRUD     -1.59050      0.400000           0   0.00000       0.00000    
      6974 IM1      45       IM1      H7       DUMH      0.00000       1.00800           0   0.00000       0.00000    
      6975 IM1      45       IM1      LPN21    LPD     -0.474000       0.00000          -1   0.00000       0.00000    
      6976 IM1      46       IM1      C1       CD33G     1.64330       11.6110           0  -1.08100       1.00000    
      6977 IM1      46       IM1      DC1      DRUD     -1.80430      0.400000           0   0.00000       0.00000    
      6978 IM1      46       IM1      H1       HDA3A    0.940000E-01   1.00800           0   0.00000       0.00000    
      6979 IM1      46       IM1      H2       HDA3A    0.940000E-01   1.00800           0   0.00000       0.00000    
      6980 IM1      46       IM1      H3       HDA3A    0.940000E-01   1.00800           0   0.00000       0.00000    
      6981 IM1      46       IM1      N1       ND2R5A    1.92920       13.6070           0  -1.06300       1.30000    
      6982 IM1      46       IM1      DN1      DRUD     -1.78920      0.400000           0   0.00000       0.00000    
      6983 IM1      46       IM1      C2       CD2R5A    1.66810       11.6110           0  -1.37800       1.30000    
      6984 IM1      46       IM1      DC2      DRUD     -2.03710      0.400000           0   0.00000       0.00000    
      6985 IM1      46       IM1      H4       HDR5A    0.150000       1.00800           0   0.00000       0.00000    
      6986 IM1      46       IM1      C3       CD2R5A    2.22510       11.6110           0  -1.37800       1.30000    
      6987 IM1      46       IM1      DC3      DRUD     -2.03710      0.400000           0   0.00000       0.00000    
      6988 IM1      46       IM1      H5       HDR5A    0.530000E-01   1.00800           0   0.00000       0.00000    
      6989 IM1      46       IM1      C4       CD2R5B    1.73480       11.6110           0 -0.868000       1.30000    
      6990 IM1      46       IM1      DC4      DRUD     -1.61680      0.400000           0   0.00000       0.00000    
      6991 IM1      46       IM1      H6       HDR5B    0.730000E-01   1.00800           0   0.00000       0.00000    
      6992 IM1      46       IM1      N2       ND2R5B    1.59050       13.6070           0 -0.840000       1.00000    
      6993 IM1      46       IM1      DN2      DRUD     -1.59050      0.400000           0   0.00000       0.00000    
      6994 IM1      46       IM1      H7       DUMH      0.00000       1.00800           0   0.00000       0.00000    
      6995 IM1      46       IM1      LPN21    LPD     -0.474000       0.00000          -1   0.00000       0.00000    
      6996 IM1      47       IM1      C1       CD33G     1.64330       11.6110           0  -1.08100       1.00000    
      6997 IM1      47       IM1      DC1      DRUD     -1.80430      0.400000           0   0.00000       0.00000    
      6998 IM1      47       IM1      H1       HDA3A    0.940000E-01   1.00800           0   0.00000       0.00000    
      6999 IM1      47       IM1      H2       HDA3A    0.940000E-01   1.00800           0   0.00000       0.00000    
      7000 IM1      47       IM1      H3       HDA3A    0.940000E-01   1.00800           0   0.00000       0.00000    
      7001 IM1      47       IM1      N1       ND2R5A    1.92920       13.6070           0  -1.06300       1.30000    
      7002 IM1      47       IM1      DN1      DRUD     -1.78920      0.400000           0   0.00000       0.00000    
      7003 IM1      47       IM1      C2       CD2R5A    1.66810       11.6110           0  -1.37800       1.30000    
      7004 IM1      47       IM1      DC2      DRUD     -2.03710      0.400000           0   0.00000       0.00000    
      7005 IM1      47       IM1      H4       HDR5A    0.150000       1.00800           0   0.00000       0.00000    
      7006 IM1      47       IM1      C3       CD2R5A    2.22510       11.6110           0  -1.37800       1.30000    
      7007 IM1      47       IM1      DC3      DRUD     -2.03710      0.400000           0   0.00000       0.00000    
      7008 IM1      47       IM1      H5       HDR5A    0.530000E-01   1.00800           0   0.00000       0.00000    
      7009 IM1      47       IM1      C4       CD2R5B    1.73480       11.6110           0 -0.868000       1.30000    
      7010 IM1      47       IM1      DC4      DRUD     -1.61680      0.400000           0   0.00000       0.00000    
      7011 IM1      47       IM1      H6       HDR5B    0.730000E-01   1.00800           0   0.00000       0.00000    
      7012 IM1      47       IM1      N2       ND2R5B    1.59050       13.6070           0 -0.840000       1.00000    
      7013 IM1      47       IM1      DN2      DRUD     -1.59050      0.400000           0   0.00000       0.00000    
      7014 IM1      47       IM1      H7       DUMH      0.00000       1.00800           0   0.00000       0.00000    
      7015 IM1      47       IM1      LPN21    LPD     -0.474000       0.00000          -1   0.00000       0.00000    
      7016 IM1      48       IM1      C1       CD33G     1.64330       11.6110           0  -1.08100       1.00000    
      7017 IM1      48       IM1      DC1      DRUD     -1.80430      0.400000           0   0.00000       0.00000    
      7018 IM1      48       IM1      H1       HDA3A    0.940000E-01   1.00800           0   0.00000       0.00000    
      7019 IM1      48       IM1      H2       HDA3A    0.940000E-01   1.00800           0   0.00000       0.00000    
      7020 IM1      48       IM1      H3       HDA3A    0.940000E-01   1.00800           0   0.00000       0.00000    
      7021 IM1      48       IM1      N1       ND2R5A    1.92920       13.6070           0  -1.06300       1.30000    
      7022 IM1      48       IM1      DN1      DRUD     -1.78920      0.400000           0   0.00000       0.00000    
      7023 IM1      48       IM1      C2       CD2R5A    1.66810       11.6110           0  -1.37800       1.30000    
      7024 IM1      48       IM1      DC2      DRUD     -2.03710      0.400000           0   0.00000       0.00000    
      7025 IM1      48       IM1      H4       HDR5A    0.150000       1.00800           0   0.00000       0.00000    
      7026 IM1      48       IM1      C3       CD2R5A    2.22510       11.6110           0  -1.37800       1.30000    
      7027 IM1      48       IM1      DC3      DRUD     -2.03710      0.400000           0   0.00000       0.00000    
      7028 IM1      48       IM1      H5       HDR5A    0.530000E-01   1.00800           0   0.00000       0.00000    
      7029 IM1      48       IM1      C4       CD2R5B    1.73480       11.6110           0 -0.868000       1.30000    
      7030 IM1      48       IM1      DC4      DRUD     -1.61680      0.400000           0   0.00000       0.00000    
      7031 IM1      48       IM1      H6       HDR5B    0.730000E-01   1.00800           0   0.00000       0.00000    
      7032 IM1      48       IM1      N2       ND2R5B    1.59050       13.6070           0 -0.840000       1.00000    
      7033 IM1      48       IM1      DN2      DRUD     -1.59050      0.400000           0   0.00000       0.00000    
      7034 IM1      48       IM1      H7       DUMH      0.00000       1.00800           0   0.00000       0.00000    
      7035 IM1      48       IM1      LPN21    LPD     -0.474000       0.00000          -1   0.00000       0.00000    
      7036 IM1      49       IM1      C1       CD33G     1.64330       11.6110           0  -1.08100       1.00000    
      7037 IM1      49       IM1      DC1      DRUD     -1.80430      0.400000           0   0.00000       0.00000    
      7038 IM1      49       IM1      H1       HDA3A    0.940000E-01   1.00800           0   0.00000       0.00000    
      7039 IM1      49       IM1      H2       HDA3A    0.940000E-01   1.00800           0   0.00000       0.00000    
      7040 IM1      49       IM1      H3       HDA3A    0.940000E-01   1.00800           0   0.00000       0.00000    
      7041 IM1      49       IM1      N1       ND2R5A    1.92920       13.6070           0  -1.06300       1.30000    
      7042 IM1      49       IM1      DN1      DRUD     -1.78920      0.400000           0   0.00000       0.00000    
      7043 IM1      49       IM1      C2       CD2R5A    1.66810       11.6110           0  -1.37800       1.30000    
      7044 IM1      49       IM1      DC2      DRUD     -2.03710      0.400000           0   0.00000       0.00000    
      7045 IM1      49       IM1      H4       HDR5A    0.150000       1.00800           0   0.00000       0.00000    
      7046 IM1      49       IM1      C3       CD2R5A    2.22510       11.6110           0  -1.37800       1.30000    
      7047 IM1      49       IM1      DC3      DRUD     -2.03710      0.400000           0   0.00000       0.00000    
      7048 IM1      49       IM1      H5       HDR5A    0.530000E-01   1.00800           0   0.00000       0.00000    
      7049 IM1      49       IM1      C4       CD2R5B    1.73480       11.6110           0 -0.868000       1.30000    
      7050 IM1      49       IM1      DC4      DRUD     -1.61680      0.400000           0   0.00000       0.00000    
      7051 IM1      49       IM1      H6       HDR5B    0.730000E-01   1.00800           0   0.00000       0.00000    
      7052 IM1      49       IM1      N2       ND2R5B    1.59050       13.6070           0 -0.840000       1.00000    
      7053 IM1      49       IM1      DN2      DRUD     -1.59050      0.400000           0   0.00000       0.00000    
      7054 IM1      49       IM1      H7       DUMH      0.00000       1.00800           0   0.00000       0.00000    
      7055 IM1      49       IM1      LPN21    LPD     -0.474000       0.00000          -1   0.00000       0.00000    
      7056 IM1      50       IM1      C1       CD33G     1.64330       11.6110           0  -1.08100       1.00000    
      7057 IM1      50       IM1      DC1      DRUD     -1.80430      0.400000           0   0.00000       0.00000    
      7058 IM1      50       IM1      H1       HDA3A    0.940000E-01   1.00800           0   0.00000       0.00000    
      7059 IM1      50       IM1      H2       HDA3A    0.940000E-01   1.00800           0   0.00000       0.00000    
      7060 IM1      50       IM1      H3       HDA3A    0.940000E-01   1.00800           0   0.00000       0.00000    
      7061 IM1      50       IM1      N1       ND2R5A    1.92920       13.6070           0  -1.06300       1.30000    
      7062 IM1      50       IM1      DN1      DRUD     -1.78920      0.400000           0   0.00000       0.00000    
      7063 IM1      50       IM1      C2       CD2R5A    1.66810       11.6110           0  -1.37800       1.30000    
      7064 IM1      50       IM1      DC2      DRUD     -2.03710      0.400000           0   0.00000       0.00000    
      7065 IM1      50       IM1      H4       HDR5A    0.150000       1.00800           0   0.00000       0.00000    
      7066 IM1      50       IM1      C3       CD2R5A    2.22510       11.6110           0  -1.37800       1.30000    
      7067 IM1      50       IM1      DC3      DRUD     -2.03710      0.400000           0   0.00000       0.00000    
      7068 IM1      50       IM1      H5       HDR5A    0.530000E-01   1.00800           0   0.00000       0.00000    
      7069 IM1      50       IM1      C4       CD2R5B    1.73480       11.6110           0 -0.868000       1.30000    
      7070 IM1      50       IM1      DC4      DRUD     -1.61680      0.400000           0   0.00000       0.00000    
      7071 IM1      50       IM1      H6       HDR5B    0.730000E-01   1.00800           0   0.00000       0.00000    
      7072 IM1      50       IM1      N2       ND2R5B    1.59050       13.6070           0 -0.840000       1.00000    
      7073 IM1      50       IM1      DN2      DRUD     -1.59050      0.400000           0   0.00000       0.00000    
      7074 IM1      50       IM1      H7       DUMH      0.00000       1.00800           0   0.00000       0.00000    
      7075 IM1      50       IM1      LPN21    LPD     -0.474000       0.00000          -1   0.00000       0.00000    
      7076 IM1      51       IM1      C1       CD33G     1.64330       11.6110           0  -1.08100       1.00000    
      7077 IM1      51       IM1      DC1      DRUD     -1.80430      0.400000           0   0.00000       0.00000    
      7078 IM1      51       IM1      H1       HDA3A    0.940000E-01   1.00800           0   0.00000       0.00000    
      7079 IM1      51       IM1      H2       HDA3A    0.940000E-01   1.00800           0   0.00000       0.00000    
      7080 IM1      51       IM1      H3       HDA3A    0.940000E-01   1.00800           0   0.00000       0.00000    
      7081 IM1      51       IM1      N1       ND2R5A    1.92920       13.6070           0  -1.06300       1.30000    
      7082 IM1      51       IM1      DN1      DRUD     -1.78920      0.400000           0   0.00000       0.00000    
      7083 IM1      51       IM1      C2       CD2R5A    1.66810       11.6110           0  -1.37800       1.30000    
      7084 IM1      51       IM1      DC2      DRUD     -2.03710      0.400000           0   0.00000       0.00000    
      7085 IM1      51       IM1      H4       HDR5A    0.150000       1.00800           0   0.00000       0.00000    
      7086 IM1      51       IM1      C3       CD2R5A    2.22510       11.6110           0  -1.37800       1.30000    
      7087 IM1      51       IM1      DC3      DRUD     -2.03710      0.400000           0   0.00000       0.00000    
      7088 IM1      51       IM1      H5       HDR5A    0.530000E-01   1.00800           0   0.00000       0.00000    
      7089 IM1      51       IM1      C4       CD2R5B    1.73480       11.6110           0 -0.868000       1.30000    
      7090 IM1      51       IM1      DC4      DRUD     -1.61680      0.400000           0   0.00000       0.00000    
      7091 IM1      51       IM1      H6       HDR5B    0.730000E-01   1.00800           0   0.00000       0.00000    
      7092 IM1      51       IM1      N2       ND2R5B    1.59050       13.6070           0 -0.840000       1.00000    
      7093 IM1      51       IM1      DN2      DRUD     -1.59050      0.400000           0   0.00000       0.00000    
      7094 IM1      51       IM1      H7       DUMH      0.00000       1.00800           0   0.00000       0.00000    
      7095 IM1      51       IM1      LPN21    LPD     -0.474000       0.00000          -1   0.00000       0.00000    
      7096 IM1      52       IM1      C1       CD33G     1.64330       11.6110           0  -1.08100       1.00000    
      7097 IM1      52       IM1      DC1      DRUD     -1.80430      0.400000           0   0.00000       0.00000    
      7098 IM1      52       IM1      H1       HDA3A    0.940000E-01   1.00800           0   0.00000       0.00000    
      7099 IM1      52       IM1      H2       HDA3A    0.940000E-01   1.00800           0   0.00000       0.00000    
      7100 IM1      52       IM1      H3       HDA3A    0.940000E-01   1.00800           0   0.00000       0.00000    
      7101 IM1      52       IM1      N1       ND2R5A    1.92920       13.6070           0  -1.06300       1.30000    
      7102 IM1      52       IM1      DN1      DRUD     -1.78920      0.400000           0   0.00000       0.00000    
      7103 IM1      52       IM1      C2       CD2R5A    1.66810       11.6110           0  -1.37800       1.30000    
      7104 IM1      52       IM1      DC2      DRUD     -2.03710      0.400000           0   0.00000       0.00000    
      7105 IM1      52       IM1      H4       HDR5A    0.150000       1.00800           0   0.00000       0.00000    
      7106 IM1      52       IM1      C3       CD2R5A    2.22510       11.6110           0  -1.37800       1.30000    
      7107 IM1      52       IM1      DC3      DRUD     -2.03710      0.400000           0   0.00000       0.00000    
      7108 IM1      52       IM1      H5       HDR5A    0.530000E-01   1.00800           0   0.00000       0.00000    
      7109 IM1      52       IM1      C4       CD2R5B    1.73480       11.6110           0 -0.868000       1.30000    
      7110 IM1      52       IM1      DC4      DRUD     -1.61680      0.400000           0   0.00000       0.00000    
      7111 IM1      52       IM1      H6       HDR5B    0.730000E-01   1.00800           0   0.00000       0.00000    
      7112 IM1      52       IM1      N2       ND2R5B    1.59050       13.6070           0 -0.840000       1.00000    
      7113 IM1      52       IM1      DN2      DRUD     -1.59050      0.400000           0   0.00000       0.00000    
      7114 IM1      52       IM1      H7       DUMH      0.00000       1.00800           0   0.00000       0.00000    
      7115 IM1      52       IM1      LPN21    LPD     -0.474000       0.00000          -1   0.00000       0.00000    
      7116 IM1      53       IM1      C1       CD33G     1.64330       11.6110           0  -1.08100       1.00000    
      7117 IM1      53       IM1      DC1      DRUD     -1.80430      0.400000           0   0.00000       0.00000    
      7118 IM1      53       IM1      H1       HDA3A    0.940000E-01   1.00800           0   0.00000       0.00000    
      7119 IM1      53       IM1      H2       HDA3A    0.940000E-01   1.00800           0   0.00000       0.00000    
      7120 IM1      53       IM1      H3       HDA3A    0.940000E-01   1.00800           0   0.00000       0.00000    
      7121 IM1      53       IM1      N1       ND2R5A    1.92920       13.6070           0  -1.06300       1.30000    
      7122 IM1      53       IM1      DN1      DRUD     -1.78920      0.400000           0   0.00000       0.00000    
      7123 IM1      53       IM1      C2       CD2R5A    1.66810       11.6110           0  -1.37800       1.30000    
      7124 IM1      53       IM1      DC2      DRUD     -2.03710      0.400000           0   0.00000       0.00000    
      7125 IM1      53       IM1      H4       HDR5A    0.150000       1.00800           0   0.00000       0.00000    
      7126 IM1      53       IM1      C3       CD2R5A    2.22510       11.6110           0  -1.37800       1.30000    
      7127 IM1      53       IM1      DC3      DRUD     -2.03710      0.400000           0   0.00000       0.00000    
      7128 IM1      53       IM1      H5       HDR5A    0.530000E-01   1.00800           0   0.00000       0.00000    
      7129 IM1      53       IM1      C4       CD2R5B    1.73480       11.6110           0 -0.868000       1.30000    
      7130 IM1      53       IM1      DC4      DRUD     -1.61680      0.400000           0   0.00000       0.00000    
      7131 IM1      53       IM1      H6       HDR5B    0.730000E-01   1.00800           0   0.00000       0.00000    
      7132 IM1      53       IM1      N2       ND2R5B    1.59050       13.6070           0 -0.840000       1.00000    
      7133 IM1      53       IM1      DN2      DRUD     -1.59050      0.400000           0   0.00000       0.00000    
      7134 IM1      53       IM1      H7       DUMH      0.00000       1.00800           0   0.00000       0.00000    
      7135 IM1      53       IM1      LPN21    LPD     -0.474000       0.00000          -1   0.00000       0.00000    
      7136 IM1      54       IM1      C1       CD33G     1.64330       11.6110           0  -1.08100       1.00000    
      7137 IM1      54       IM1      DC1      DRUD     -1.80430      0.400000           0   0.00000       0.00000    
      7138 IM1      54       IM1      H1       HDA3A    0.940000E-01   1.00800           0   0.00000       0.00000    
      7139 IM1      54       IM1      H2       HDA3A    0.940000E-01   1.00800           0   0.00000       0.00000    
      7140 IM1      54       IM1      H3       HDA3A    0.940000E-01   1.00800           0   0.00000       0.00000    
      7141 IM1      54       IM1      N1       ND2R5A    1.92920       13.6070           0  -1.06300       1.30000    
      7142 IM1      54       IM1      DN1      DRUD     -1.78920      0.400000           0   0.00000       0.00000    
      7143 IM1      54       IM1      C2       CD2R5A    1.66810       11.6110           0  -1.37800       1.30000    
      7144 IM1      54       IM1      DC2      DRUD     -2.03710      0.400000           0   0.00000       0.00000    
      7145 IM1      54       IM1      H4       HDR5A    0.150000       1.00800           0   0.00000       0.00000    
      7146 IM1      54       IM1      C3       CD2R5A    2.22510       11.6110           0  -1.37800       1.30000    
      7147 IM1      54       IM1      DC3      DRUD     -2.03710      0.400000           0   0.00000       0.00000    
      7148 IM1      54       IM1      H5       HDR5A    0.530000E-01   1.00800           0   0.00000       0.00000    
      7149 IM1      54       IM1      C4       CD2R5B    1.73480       11.6110           0 -0.868000       1.30000    
      7150 IM1      54       IM1      DC4      DRUD     -1.61680      0.400000           0   0.00000       0.00000    
      7151 IM1      54       IM1      H6       HDR5B    0.730000E-01   1.00800           0   0.00000       0.00000    
      7152 IM1      54       IM1      N2       ND2R5B    1.59050       13.6070           0 -0.840000       1.00000    
      7153 IM1      54       IM1      DN2      DRUD     -1.59050      0.400000           0   0.00000       0.00000    
      7154 IM1      54       IM1      H7       DUMH      0.00000       1.00800           0   0.00000       0.00000    
      7155 IM1      54       IM1      LPN21    LPD     -0.474000       0.00000          -1   0.00000       0.00000    
      7156 IM1      55       IM1      C1       CD33G     1.64330       11.6110           0  -1.08100       1.00000    
      7157 IM1      55       IM1      DC1      DRUD     -1.80430      0.400000           0   0.00000       0.00000    
      7158 IM1      55       IM1      H1       HDA3A    0.940000E-01   1.00800           0   0.00000       0.00000    
      7159 IM1      55       IM1      H2       HDA3A    0.940000E-01   1.00800           0   0.00000       0.00000    
      7160 IM1      55       IM1      H3       HDA3A    0.940000E-01   1.00800           0   0.00000       0.00000    
      7161 IM1      55       IM1      N1       ND2R5A    1.92920       13.6070           0  -1.06300       1.30000    
      7162 IM1      55       IM1      DN1      DRUD     -1.78920      0.400000           0   0.00000       0.00000    
      7163 IM1      55       IM1      C2       CD2R5A    1.66810       11.6110           0  -1.37800       1.30000    
      7164 IM1      55       IM1      DC2      DRUD     -2.03710      0.400000           0   0.00000       0.00000    
      7165 IM1      55       IM1      H4       HDR5A    0.150000       1.00800           0   0.00000       0.00000    
      7166 IM1      55       IM1      C3       CD2R5A    2.22510       11.6110           0  -1.37800       1.30000    
      7167 IM1      55       IM1      DC3      DRUD     -2.03710      0.400000           0   0.00000       0.00000    
      7168 IM1      55       IM1      H5       HDR5A    0.530000E-01   1.00800           0   0.00000       0.00000    
      7169 IM1      55       IM1      C4       CD2R5B    1.73480       11.6110           0 -0.868000       1.30000    
      7170 IM1      55       IM1      DC4      DRUD     -1.61680      0.400000           0   0.00000       0.00000    
      7171 IM1      55       IM1      H6       HDR5B    0.730000E-01   1.00800           0   0.00000       0.00000    
      7172 IM1      55       IM1      N2       ND2R5B    1.59050       13.6070           0 -0.840000       1.00000    
      7173 IM1      55       IM1      DN2      DRUD     -1.59050      0.400000           0   0.00000       0.00000    
      7174 IM1      55       IM1      H7       DUMH      0.00000       1.00800           0   0.00000       0.00000    
      7175 IM1      55       IM1      LPN21    LPD     -0.474000       0.00000          -1   0.00000       0.00000    
      7176 IM1      56       IM1      C1       CD33G     1.64330       11.6110           0  -1.08100       1.00000    
      7177 IM1      56       IM1      DC1      DRUD     -1.80430      0.400000           0   0.00000       0.00000    
      7178 IM1      56       IM1      H1       HDA3A    0.940000E-01   1.00800           0   0.00000       0.00000    
      7179 IM1      56       IM1      H2       HDA3A    0.940000E-01   1.00800           0   0.00000       0.00000    
      7180 IM1      56       IM1      H3       HDA3A    0.940000E-01   1.00800           0   0.00000       0.00000    
      7181 IM1      56       IM1      N1       ND2R5A    1.92920       13.6070           0  -1.06300       1.30000    
      7182 IM1      56       IM1      DN1      DRUD     -1.78920      0.400000           0   0.00000       0.00000    
      7183 IM1      56       IM1      C2       CD2R5A    1.66810       11.6110           0  -1.37800       1.30000    
      7184 IM1      56       IM1      DC2      DRUD     -2.03710      0.400000           0   0.00000       0.00000    
      7185 IM1      56       IM1      H4       HDR5A    0.150000       1.00800           0   0.00000       0.00000    
      7186 IM1      56       IM1      C3       CD2R5A    2.22510       11.6110           0  -1.37800       1.30000    
      7187 IM1      56       IM1      DC3      DRUD     -2.03710      0.400000           0   0.00000       0.00000    
      7188 IM1      56       IM1      H5       HDR5A    0.530000E-01   1.00800           0   0.00000       0.00000    
      7189 IM1      56       IM1      C4       CD2R5B    1.73480       11.6110           0 -0.868000       1.30000    
      7190 IM1      56       IM1      DC4      DRUD     -1.61680      0.400000           0   0.00000       0.00000    
      7191 IM1      56       IM1      H6       HDR5B    0.730000E-01   1.00800           0   0.00000       0.00000    
      7192 IM1      56       IM1      N2       ND2R5B    1.59050       13.6070           0 -0.840000       1.00000    
      7193 IM1      56       IM1      DN2      DRUD     -1.59050      0.400000           0   0.00000       0.00000    
      7194 IM1      56       IM1      H7       DUMH      0.00000       1.00800           0   0.00000       0.00000    
      7195 IM1      56       IM1      LPN21    LPD     -0.474000       0.00000          -1   0.00000       0.00000    
      7196 IM1      57       IM1      C1       CD33G     1.64330       11.6110           0  -1.08100       1.00000    
      7197 IM1      57       IM1      DC1      DRUD     -1.80430      0.400000           0   0.00000       0.00000    
      7198 IM1      57       IM1      H1       HDA3A    0.940000E-01   1.00800           0   0.00000       0.00000    
      7199 IM1      57       IM1      H2       HDA3A    0.940000E-01   1.00800           0   0.00000       0.00000    
      7200 IM1      57       IM1      H3       HDA3A    0.940000E-01   1.00800           0   0.00000       0.00000    
      7201 IM1      57       IM1      N1       ND2R5A    1.92920       13.6070           0  -1.06300       1.30000    
      7202 IM1      57       IM1      DN1      DRUD     -1.78920      0.400000           0   0.00000       0.00000    
      7203 IM1      57       IM1      C2       CD2R5A    1.66810       11.6110           0  -1.37800       1.30000    
      7204 IM1      57       IM1      DC2      DRUD     -2.03710      0.400000           0   0.00000       0.00000    
      7205 IM1      57       IM1      H4       HDR5A    0.150000       1.00800           0   0.00000       0.00000    
      7206 IM1      57       IM1      C3       CD2R5A    2.22510       11.6110           0  -1.37800       1.30000    
      7207 IM1      57       IM1      DC3      DRUD     -2.03710      0.400000           0   0.00000       0.00000    
      7208 IM1      57       IM1      H5       HDR5A    0.530000E-01   1.00800           0   0.00000       0.00000    
      7209 IM1      57       IM1      C4       CD2R5B    1.73480       11.6110           0 -0.868000       1.30000    
      7210 IM1      57       IM1      DC4      DRUD     -1.61680      0.400000           0   0.00000       0.00000    
      7211 IM1      57       IM1      H6       HDR5B    0.730000E-01   1.00800           0   0.00000       0.00000    
      7212 IM1      57       IM1      N2       ND2R5B    1.59050       13.6070           0 -0.840000       1.00000    
      7213 IM1      57       IM1      DN2      DRUD     -1.59050      0.400000           0   0.00000       0.00000    
      7214 IM1      57       IM1      H7       DUMH      0.00000       1.00800           0   0.00000       0.00000    
      7215 IM1      57       IM1      LPN21    LPD     -0.474000       0.00000          -1   0.00000       0.00000    
      7216 IM1      58       IM1      C1       CD33G     1.64330       11.6110           0  -1.08100       1.00000    
      7217 IM1      58       IM1      DC1      DRUD     -1.80430      0.400000           0   0.00000       0.00000    
      7218 IM1      58       IM1      H1       HDA3A    0.940000E-01   1.00800           0   0.00000       0.00000    
      7219 IM1      58       IM1      H2       HDA3A    0.940000E-01   1.00800           0   0.00000       0.00000    
      7220 IM1      58       IM1      H3       HDA3A    0.940000E-01   1.00800           0   0.00000       0.00000    
      7221 IM1      58       IM1      N1       ND2R5A    1.92920       13.6070           0  -1.06300       1.30000    
      7222 IM1      58       IM1      DN1      DRUD     -1.78920      0.400000           0   0.00000       0.00000    
      7223 IM1      58       IM1      C2       CD2R5A    1.66810       11.6110           0  -1.37800       1.30000    
      7224 IM1      58       IM1      DC2      DRUD     -2.03710      0.400000           0   0.00000       0.00000    
      7225 IM1      58       IM1      H4       HDR5A    0.150000       1.00800           0   0.00000       0.00000    
      7226 IM1      58       IM1      C3       CD2R5A    2.22510       11.6110           0  -1.37800       1.30000    
      7227 IM1      58       IM1      DC3      DRUD     -2.03710      0.400000           0   0.00000       0.00000    
      7228 IM1      58       IM1      H5       HDR5A    0.530000E-01   1.00800           0   0.00000       0.00000    
      7229 IM1      58       IM1      C4       CD2R5B    1.73480       11.6110           0 -0.868000       1.30000    
      7230 IM1      58       IM1      DC4      DRUD     -1.61680      0.400000           0   0.00000       0.00000    
      7231 IM1      58       IM1      H6       HDR5B    0.730000E-01   1.00800           0   0.00000       0.00000    
      7232 IM1      58       IM1      N2       ND2R5B    1.59050       13.6070           0 -0.840000       1.00000    
      7233 IM1      58       IM1      DN2      DRUD     -1.59050      0.400000           0   0.00000       0.00000    
      7234 IM1      58       IM1      H7       DUMH      0.00000       1.00800           0   0.00000       0.00000    
      7235 IM1      58       IM1      LPN21    LPD     -0.474000       0.00000          -1   0.00000       0.00000    
      7236 IM1      59       IM1      C1       CD33G     1.64330       11.6110           0  -1.08100       1.00000    
      7237 IM1      59       IM1      DC1      DRUD     -1.80430      0.400000           0   0.00000       0.00000    
      7238 IM1      59       IM1      H1       HDA3A    0.940000E-01   1.00800           0   0.00000       0.00000    
      7239 IM1      59       IM1      H2       HDA3A    0.940000E-01   1.00800           0   0.00000       0.00000    
      7240 IM1      59       IM1      H3       HDA3A    0.940000E-01   1.00800           0   0.00000       0.00000    
      7241 IM1      59       IM1      N1       ND2R5A    1.92920       13.6070           0  -1.06300       1.30000    
      7242 IM1      59       IM1      DN1      DRUD     -1.78920      0.400000           0   0.00000       0.00000    
      7243 IM1      59       IM1      C2       CD2R5A    1.66810       11.6110           0  -1.37800       1.30000    
      7244 IM1      59       IM1      DC2      DRUD     -2.03710      0.400000           0   0.00000       0.00000    
      7245 IM1      59       IM1      H4       HDR5A    0.150000       1.00800           0   0.00000       0.00000    
      7246 IM1      59       IM1      C3       CD2R5A    2.22510       11.6110           0  -1.37800       1.30000    
      7247 IM1      59       IM1      DC3      DRUD     -2.03710      0.400000           0   0.00000       0.00000    
      7248 IM1      59       IM1      H5       HDR5A    0.530000E-01   1.00800           0   0.00000       0.00000    
      7249 IM1      59       IM1      C4       CD2R5B    1.73480       11.6110           0 -0.868000       1.30000    
      7250 IM1      59       IM1      DC4      DRUD     -1.61680      0.400000           0   0.00000       0.00000    
      7251 IM1      59       IM1      H6       HDR5B    0.730000E-01   1.00800           0   0.00000       0.00000    
      7252 IM1      59       IM1      N2       ND2R5B    1.59050       13.6070           0 -0.840000       1.00000    
      7253 IM1      59       IM1      DN2      DRUD     -1.59050      0.400000           0   0.00000       0.00000    
      7254 IM1      59       IM1      H7       DUMH      0.00000       1.00800           0   0.00000       0.00000    
      7255 IM1      59       IM1      LPN21    LPD     -0.474000       0.00000          -1   0.00000       0.00000    
      7256 IM1      60       IM1      C1       CD33G     1.64330       11.6110           0  -1.08100       1.00000    
      7257 IM1      60       IM1      DC1      DRUD     -1.80430      0.400000           0   0.00000       0.00000    
      7258 IM1      60       IM1      H1       HDA3A    0.940000E-01   1.00800           0   0.00000       0.00000    
      7259 IM1      60       IM1      H2       HDA3A    0.940000E-01   1.00800           0   0.00000       0.00000    
      7260 IM1      60       IM1      H3       HDA3A    0.940000E-01   1.00800           0   0.00000       0.00000    
      7261 IM1      60       IM1      N1       ND2R5A    1.92920       13.6070           0  -1.06300       1.30000    
      7262 IM1      60       IM1      DN1      DRUD     -1.78920      0.400000           0   0.00000       0.00000    
      7263 IM1      60       IM1      C2       CD2R5A    1.66810       11.6110           0  -1.37800       1.30000    
      7264 IM1      60       IM1      DC2      DRUD     -2.03710      0.400000           0   0.00000       0.00000    
      7265 IM1      60       IM1      H4       HDR5A    0.150000       1.00800           0   0.00000       0.00000    
      7266 IM1      60       IM1      C3       CD2R5A    2.22510       11.6110           0  -1.37800       1.30000    
      7267 IM1      60       IM1      DC3      DRUD     -2.03710      0.400000           0   0.00000       0.00000    
      7268 IM1      60       IM1      H5       HDR5A    0.530000E-01   1.00800           0   0.00000       0.00000    
      7269 IM1      60       IM1      C4       CD2R5B    1.73480       11.6110           0 -0.868000       1.30000    
      7270 IM1      60       IM1      DC4      DRUD     -1.61680      0.400000           0   0.00000       0.00000    
      7271 IM1      60       IM1      H6       HDR5B    0.730000E-01   1.00800           0   0.00000       0.00000    
      7272 IM1      60       IM1      N2       ND2R5B    1.59050       13.6070           0 -0.840000       1.00000    
      7273 IM1      60       IM1      DN2      DRUD     -1.59050      0.400000           0   0.00000       0.00000    
      7274 IM1      60       IM1      H7       DUMH      0.00000       1.00800           0   0.00000       0.00000    
      7275 IM1      60       IM1      LPN21    LPD     -0.474000       0.00000          -1   0.00000       0.00000    
      7276 IM1      61       IM1      C1       CD33G     1.64330       11.6110           0  -1.08100       1.00000    
      7277 IM1      61       IM1      DC1      DRUD     -1.80430      0.400000           0   0.00000       0.00000    
      7278 IM1      61       IM1      H1       HDA3A    0.940000E-01   1.00800           0   0.00000       0.00000    
      7279 IM1      61       IM1      H2       HDA3A    0.940000E-01   1.00800           0   0.00000       0.00000    
      7280 IM1      61       IM1      H3       HDA3A    0.940000E-01   1.00800           0   0.00000       0.00000    
      7281 IM1      61       IM1      N1       ND2R5A    1.92920       13.6070           0  -1.06300       1.30000    
      7282 IM1      61       IM1      DN1      DRUD     -1.78920      0.400000           0   0.00000       0.00000    
      7283 IM1      61       IM1      C2       CD2R5A    1.66810       11.6110           0  -1.37800       1.30000    
      7284 IM1      61       IM1      DC2      DRUD     -2.03710      0.400000           0   0.00000       0.00000    
      7285 IM1      61       IM1      H4       HDR5A    0.150000       1.00800           0   0.00000       0.00000    
      7286 IM1      61       IM1      C3       CD2R5A    2.22510       11.6110           0  -1.37800       1.30000    
      7287 IM1      61       IM1      DC3      DRUD     -2.03710      0.400000           0   0.00000       0.00000    
      7288 IM1      61       IM1      H5       HDR5A    0.530000E-01   1.00800           0   0.00000       0.00000    
      7289 IM1      61       IM1      C4       CD2R5B    1.73480       11.6110           0 -0.868000       1.30000    
      7290 IM1      61       IM1      DC4      DRUD     -1.61680      0.400000           0   0.00000       0.00000    
      7291 IM1      61       IM1      H6       HDR5B    0.730000E-01   1.00800           0   0.00000       0.00000    
      7292 IM1      61       IM1      N2       ND2R5B    1.59050       13.6070           0 -0.840000       1.00000    
      7293 IM1      61       IM1      DN2      DRUD     -1.59050      0.400000           0   0.00000       0.00000    
      7294 IM1      61       IM1      H7       DUMH      0.00000       1.00800           0   0.00000       0.00000    
      7295 IM1      61       IM1      LPN21    LPD     -0.474000       0.00000          -1   0.00000       0.00000    
      7296 IM1      62       IM1      C1       CD33G     1.64330       11.6110           0  -1.08100       1.00000    
      7297 IM1      62       IM1      DC1      DRUD     -1.80430      0.400000           0   0.00000       0.00000    
      7298 IM1      62       IM1      H1       HDA3A    0.940000E-01   1.00800           0   0.00000       0.00000    
      7299 IM1      62       IM1      H2       HDA3A    0.940000E-01   1.00800           0   0.00000       0.00000    
      7300 IM1      62       IM1      H3       HDA3A    0.940000E-01   1.00800           0   0.00000       0.00000    
      7301 IM1      62       IM1      N1       ND2R5A    1.92920       13.6070           0  -1.06300       1.30000    
      7302 IM1      62       IM1      DN1      DRUD     -1.78920      0.400000           0   0.00000       0.00000    
      7303 IM1      62       IM1      C2       CD2R5A    1.66810       11.6110           0  -1.37800       1.30000    
      7304 IM1      62       IM1      DC2      DRUD     -2.03710      0.400000           0   0.00000       0.00000    
      7305 IM1      62       IM1      H4       HDR5A    0.150000       1.00800           0   0.00000       0.00000    
      7306 IM1      62       IM1      C3       CD2R5A    2.22510       11.6110           0  -1.37800       1.30000    
      7307 IM1      62       IM1      DC3      DRUD     -2.03710      0.400000           0   0.00000       0.00000    
      7308 IM1      62       IM1      H5       HDR5A    0.530000E-01   1.00800           0   0.00000       0.00000    
      7309 IM1      62       IM1      C4       CD2R5B    1.73480       11.6110           0 -0.868000       1.30000    
      7310 IM1      62       IM1      DC4      DRUD     -1.61680      0.400000           0   0.00000       0.00000    
      7311 IM1      62       IM1      H6       HDR5B    0.730000E-01   1.00800           0   0.00000       0.00000    
      7312 IM1      62       IM1      N2       ND2R5B    1.59050       13.6070           0 -0.840000       1.00000    
      7313 IM1      62       IM1      DN2      DRUD     -1.59050      0.400000           0   0.00000       0.00000    
      7314 IM1      62       IM1      H7       DUMH      0.00000       1.00800           0   0.00000       0.00000    
      7315 IM1      62       IM1      LPN21    LPD     -0.474000       0.00000          -1   0.00000       0.00000    
      7316 IM1      63       IM1      C1       CD33G     1.64330       11.6110           0  -1.08100       1.00000    
      7317 IM1      63       IM1      DC1      DRUD     -1.80430      0.400000           0   0.00000       0.00000    
      7318 IM1      63       IM1      H1       HDA3A    0.940000E-01   1.00800           0   0.00000       0.00000    
      7319 IM1      63       IM1      H2       HDA3A    0.940000E-01   1.00800           0   0.00000       0.00000    
      7320 IM1      63       IM1      H3       HDA3A    0.940000E-01   1.00800           0   0.00000       0.00000    
      7321 IM1      63       IM1      N1       ND2R5A    1.92920       13.6070           0  -1.06300       1.30000    
      7322 IM1      63       IM1      DN1      DRUD     -1.78920      0.400000           0   0.00000       0.00000    
      7323 IM1      63       IM1      C2       CD2R5A    1.66810       11.6110           0  -1.37800       1.30000    
      7324 IM1      63       IM1      DC2      DRUD     -2.03710      0.400000           0   0.00000       0.00000    
      7325 IM1      63       IM1      H4       HDR5A    0.150000       1.00800           0   0.00000       0.00000    
      7326 IM1      63       IM1      C3       CD2R5A    2.22510       11.6110           0  -1.37800       1.30000    
      7327 IM1      63       IM1      DC3      DRUD     -2.03710      0.400000           0   0.00000       0.00000    
      7328 IM1      63       IM1      H5       HDR5A    0.530000E-01   1.00800           0   0.00000       0.00000    
      7329 IM1      63       IM1      C4       CD2R5B    1.73480       11.6110           0 -0.868000       1.30000    
      7330 IM1      63       IM1      DC4      DRUD     -1.61680      0.400000           0   0.00000       0.00000    
      7331 IM1      63       IM1      H6       HDR5B    0.730000E-01   1.00800           0   0.00000       0.00000    
      7332 IM1      63       IM1      N2       ND2R5B    1.59050       13.6070           0 -0.840000       1.00000    
      7333 IM1      63       IM1      DN2      DRUD     -1.59050      0.400000           0   0.00000       0.00000    
      7334 IM1      63       IM1      H7       DUMH      0.00000       1.00800           0   0.00000       0.00000    
      7335 IM1      63       IM1      LPN21    LPD     -0.474000       0.00000          -1   0.00000       0.00000    
      7336 IM1      64       IM1      C1       CD33G     1.64330       11.6110           0  -1.08100       1.00000    
      7337 IM1      64       IM1      DC1      DRUD     -1.80430      0.400000           0   0.00000       0.00000    
      7338 IM1      64       IM1      H1       HDA3A    0.940000E-01   1.00800           0   0.00000       0.00000    
      7339 IM1      64       IM1      H2       HDA3A    0.940000E-01   1.00800           0   0.00000       0.00000    
      7340 IM1      64       IM1      H3       HDA3A    0.940000E-01   1.00800           0   0.00000       0.00000    
      7341 IM1      64       IM1      N1       ND2R5A    1.92920       13.6070           0  -1.06300       1.30000    
      7342 IM1      64       IM1      DN1      DRUD     -1.78920      0.400000           0   0.00000       0.00000    
      7343 IM1      64       IM1      C2       CD2R5A    1.66810       11.6110           0  -1.37800       1.30000    
      7344 IM1      64       IM1      DC2      DRUD     -2.03710      0.400000           0   0.00000       0.00000    
      7345 IM1      64       IM1      H4       HDR5A    0.150000       1.00800           0   0.00000       0.00000    
      7346 IM1      64       IM1      C3       CD2R5A    2.22510       11.6110           0  -1.37800       1.30000    
      7347 IM1      64       IM1      DC3      DRUD     -2.03710      0.400000           0   0.00000       0.00000    
      7348 IM1      64       IM1      H5       HDR5A    0.530000E-01   1.00800           0   0.00000       0.00000    
      7349 IM1      64       IM1      C4       CD2R5B    1.73480       11.6110           0 -0.868000       1.30000    
      7350 IM1      64       IM1      DC4      DRUD     -1.61680      0.400000           0   0.00000       0.00000    
      7351 IM1      64       IM1      H6       HDR5B    0.730000E-01   1.00800           0   0.00000       0.00000    
      7352 IM1      64       IM1      N2       ND2R5B    1.59050       13.6070           0 -0.840000       1.00000    
      7353 IM1      64       IM1      DN2      DRUD     -1.59050      0.400000           0   0.00000       0.00000    
      7354 IM1      64       IM1      H7       DUMH      0.00000       1.00800           0   0.00000       0.00000    
      7355 IM1      64       IM1      LPN21    LPD     -0.474000       0.00000          -1   0.00000       0.00000    
      7356 IM1      65       IM1      C1       CD33G     1.64330       11.6110           0  -1.08100       1.00000    
      7357 IM1      65       IM1      DC1      DRUD     -1.80430      0.400000           0   0.00000       0.00000    
      7358 IM1      65       IM1      H1       HDA3A    0.940000E-01   1.00800           0   0.00000       0.00000    
      7359 IM1      65       IM1      H2       HDA3A    0.940000E-01   1.00800           0   0.00000       0.00000    
      7360 IM1      65       IM1      H3       HDA3A    0.940000E-01   1.00800           0   0.00000       0.00000    
      7361 IM1      65       IM1      N1       ND2R5A    1.92920       13.6070           0  -1.06300       1.30000    
      7362 IM1      65       IM1      DN1      DRUD     -1.78920      0.400000           0   0.00000       0.00000    
      7363 IM1      65       IM1      C2       CD2R5A    1.66810       11.6110           0  -1.37800       1.30000    
      7364 IM1      65       IM1      DC2      DRUD     -2.03710      0.400000           0   0.00000       0.00000    
      7365 IM1      65       IM1      H4       HDR5A    0.150000       1.00800           0   0.00000       0.00000    
      7366 IM1      65       IM1      C3       CD2R5A    2.22510       11.6110           0  -1.37800       1.30000    
      7367 IM1      65       IM1      DC3      DRUD     -2.03710      0.400000           0   0.00000       0.00000    
      7368 IM1      65       IM1      H5       HDR5A    0.530000E-01   1.00800           0   0.00000       0.00000    
      7369 IM1      65       IM1      C4       CD2R5B    1.73480       11.6110           0 -0.868000       1.30000    
      7370 IM1      65       IM1      DC4      DRUD     -1.61680      0.400000           0   0.00000       0.00000    
      7371 IM1      65       IM1      H6       HDR5B    0.730000E-01   1.00800           0   0.00000       0.00000    
      7372 IM1      65       IM1      N2       ND2R5B    1.59050       13.6070           0 -0.840000       1.00000    
      7373 IM1      65       IM1      DN2      DRUD     -1.59050      0.400000           0   0.00000       0.00000    
      7374 IM1      65       IM1      H7       DUMH      0.00000       1.00800           0   0.00000       0.00000    
      7375 IM1      65       IM1      LPN21    LPD     -0.474000       0.00000          -1   0.00000       0.00000    
      7376 IM1      66       IM1      C1       CD33G     1.64330       11.6110           0  -1.08100       1.00000    
      7377 IM1      66       IM1      DC1      DRUD     -1.80430      0.400000           0   0.00000       0.00000    
      7378 IM1      66       IM1      H1       HDA3A    0.940000E-01   1.00800           0   0.00000       0.00000    
      7379 IM1      66       IM1      H2       HDA3A    0.940000E-01   1.00800           0   0.00000       0.00000    
      7380 IM1      66       IM1      H3       HDA3A    0.940000E-01   1.00800           0   0.00000       0.00000    
      7381 IM1      66       IM1      N1       ND2R5A    1.92920       13.6070           0  -1.06300       1.30000    
      7382 IM1      66       IM1      DN1      DRUD     -1.78920      0.400000           0   0.00000       0.00000    
      7383 IM1      66       IM1      C2       CD2R5A    1.66810       11.6110           0  -1.37800       1.30000    
      7384 IM1      66       IM1      DC2      DRUD     -2.03710      0.400000           0   0.00000       0.00000    
      7385 IM1      66       IM1      H4       HDR5A    0.150000       1.00800           0   0.00000       0.00000    
      7386 IM1      66       IM1      C3       CD2R5A    2.22510       11.6110           0  -1.37800       1.30000    
      7387 IM1      66       IM1      DC3      DRUD     -2.03710      0.400000           0   0.00000       0.00000    
      7388 IM1      66       IM1      H5       HDR5A    0.530000E-01   1.00800           0   0.00000       0.00000    
      7389 IM1      66       IM1      C4       CD2R5B    1.73480       11.6110           0 -0.868000       1.30000    
      7390 IM1      66       IM1      DC4      DRUD     -1.61680      0.400000           0   0.00000       0.00000    
      7391 IM1      66       IM1      H6       HDR5B    0.730000E-01   1.00800           0   0.00000       0.00000    
      7392 IM1      66       IM1      N2       ND2R5B    1.59050       13.6070           0 -0.840000       1.00000    
      7393 IM1      66       IM1      DN2      DRUD     -1.59050      0.400000           0   0.00000       0.00000    
      7394 IM1      66       IM1      H7       DUMH      0.00000       1.00800           0   0.00000       0.00000    
      7395 IM1      66       IM1      LPN21    LPD     -0.474000       0.00000          -1   0.00000       0.00000    
      7396 IM1      67       IM1      C1       CD33G     1.64330       11.6110           0  -1.08100       1.00000    
      7397 IM1      67       IM1      DC1      DRUD     -1.80430      0.400000           0   0.00000       0.00000    
      7398 IM1      67       IM1      H1       HDA3A    0.940000E-01   1.00800           0   0.00000       0.00000    
      7399 IM1      67       IM1      H2       HDA3A    0.940000E-01   1.00800           0   0.00000       0.00000    
      7400 IM1      67       IM1      H3       HDA3A    0.940000E-01   1.00800           0   0.00000       0.00000    
      7401 IM1      67       IM1      N1       ND2R5A    1.92920       13.6070           0  -1.06300       1.30000    
      7402 IM1      67       IM1      DN1      DRUD     -1.78920      0.400000           0   0.00000       0.00000    
      7403 IM1      67       IM1      C2       CD2R5A    1.66810       11.6110           0  -1.37800       1.30000    
      7404 IM1      67       IM1      DC2      DRUD     -2.03710      0.400000           0   0.00000       0.00000    
      7405 IM1      67       IM1      H4       HDR5A    0.150000       1.00800           0   0.00000       0.00000    
      7406 IM1      67       IM1      C3       CD2R5A    2.22510       11.6110           0  -1.37800       1.30000    
      7407 IM1      67       IM1      DC3      DRUD     -2.03710      0.400000           0   0.00000       0.00000    
      7408 IM1      67       IM1      H5       HDR5A    0.530000E-01   1.00800           0   0.00000       0.00000    
      7409 IM1      67       IM1      C4       CD2R5B    1.73480       11.6110           0 -0.868000       1.30000    
      7410 IM1      67       IM1      DC4      DRUD     -1.61680      0.400000           0   0.00000       0.00000    
      7411 IM1      67       IM1      H6       HDR5B    0.730000E-01   1.00800           0   0.00000       0.00000    
      7412 IM1      67       IM1      N2       ND2R5B    1.59050       13.6070           0 -0.840000       1.00000    
      7413 IM1      67       IM1      DN2      DRUD     -1.59050      0.400000           0   0.00000       0.00000    
      7414 IM1      67       IM1      H7       DUMH      0.00000       1.00800           0   0.00000       0.00000    
      7415 IM1      67       IM1      LPN21    LPD     -0.474000       0.00000          -1   0.00000       0.00000    
      7416 IM1      68       IM1      C1       CD33G     1.64330       11.6110           0  -1.08100       1.00000    
      7417 IM1      68       IM1      DC1      DRUD     -1.80430      0.400000           0   0.00000       0.00000    
      7418 IM1      68       IM1      H1       HDA3A    0.940000E-01   1.00800           0   0.00000       0.00000    
      7419 IM1      68       IM1      H2       HDA3A    0.940000E-01   1.00800           0   0.00000       0.00000    
      7420 IM1      68       IM1      H3       HDA3A    0.940000E-01   1.00800           0   0.00000       0.00000    
      7421 IM1      68       IM1      N1       ND2R5A    1.92920       13.6070           0  -1.06300       1.30000    
      7422 IM1      68       IM1      DN1      DRUD     -1.78920      0.400000           0   0.00000       0.00000    
      7423 IM1      68       IM1      C2       CD2R5A    1.66810       11.6110           0  -1.37800       1.30000    
      7424 IM1      68       IM1      DC2      DRUD     -2.03710      0.400000           0   0.00000       0.00000    
      7425 IM1      68       IM1      H4       HDR5A    0.150000       1.00800           0   0.00000       0.00000    
      7426 IM1      68       IM1      C3       CD2R5A    2.22510       11.6110           0  -1.37800       1.30000    
      7427 IM1      68       IM1      DC3      DRUD     -2.03710      0.400000           0   0.00000       0.00000    
      7428 IM1      68       IM1      H5       HDR5A    0.530000E-01   1.00800           0   0.00000       0.00000    
      7429 IM1      68       IM1      C4       CD2R5B    1.73480       11.6110           0 -0.868000       1.30000    
      7430 IM1      68       IM1      DC4      DRUD     -1.61680      0.400000           0   0.00000       0.00000    
      7431 IM1      68       IM1      H6       HDR5B    0.730000E-01   1.00800           0   0.00000       0.00000    
      7432 IM1      68       IM1      N2       ND2R5B    1.59050       13.6070           0 -0.840000       1.00000    
      7433 IM1      68       IM1      DN2      DRUD     -1.59050      0.400000           0   0.00000       0.00000    
      7434 IM1      68       IM1      H7       DUMH      0.00000       1.00800           0   0.00000       0.00000    
      7435 IM1      68       IM1      LPN21    LPD     -0.474000       0.00000          -1   0.00000       0.00000    
      7436 IM1      69       IM1      C1       CD33G     1.64330       11.6110           0  -1.08100       1.00000    
      7437 IM1      69       IM1      DC1      DRUD     -1.80430      0.400000           0   0.00000       0.00000    
      7438 IM1      69       IM1      H1       HDA3A    0.940000E-01   1.00800           0   0.00000       0.00000    
      7439 IM1      69       IM1      H2       HDA3A    0.940000E-01   1.00800           0   0.00000       0.00000    
      7440 IM1      69       IM1      H3       HDA3A    0.940000E-01   1.00800           0   0.00000       0.00000    
      7441 IM1      69       IM1      N1       ND2R5A    1.92920       13.6070           0  -1.06300       1.30000    
      7442 IM1      69       IM1      DN1      DRUD     -1.78920      0.400000           0   0.00000       0.00000    
      7443 IM1      69       IM1      C2       CD2R5A    1.66810       11.6110           0  -1.37800       1.30000    
      7444 IM1      69       IM1      DC2      DRUD     -2.03710      0.400000           0   0.00000       0.00000    
      7445 IM1      69       IM1      H4       HDR5A    0.150000       1.00800           0   0.00000       0.00000    
      7446 IM1      69       IM1      C3       CD2R5A    2.22510       11.6110           0  -1.37800       1.30000    
      7447 IM1      69       IM1      DC3      DRUD     -2.03710      0.400000           0   0.00000       0.00000    
      7448 IM1      69       IM1      H5       HDR5A    0.530000E-01   1.00800           0   0.00000       0.00000    
      7449 IM1      69       IM1      C4       CD2R5B    1.73480       11.6110           0 -0.868000       1.30000    
      7450 IM1      69       IM1      DC4      DRUD     -1.61680      0.400000           0   0.00000       0.00000    
      7451 IM1      69       IM1      H6       HDR5B    0.730000E-01   1.00800           0   0.00000       0.00000    
      7452 IM1      69       IM1      N2       ND2R5B    1.59050       13.6070           0 -0.840000       1.00000    
      7453 IM1      69       IM1      DN2      DRUD     -1.59050      0.400000           0   0.00000       0.00000    
      7454 IM1      69       IM1      H7       DUMH      0.00000       1.00800           0   0.00000       0.00000    
      7455 IM1      69       IM1      LPN21    LPD     -0.474000       0.00000          -1   0.00000       0.00000    
      7456 IM1      70       IM1      C1       CD33G     1.64330       11.6110           0  -1.08100       1.00000    
      7457 IM1      70       IM1      DC1      DRUD     -1.80430      0.400000           0   0.00000       0.00000    
      7458 IM1      70       IM1      H1       HDA3A    0.940000E-01   1.00800           0   0.00000       0.00000    
      7459 IM1      70       IM1      H2       HDA3A    0.940000E-01   1.00800           0   0.00000       0.00000    
      7460 IM1      70       IM1      H3       HDA3A    0.940000E-01   1.00800           0   0.00000       0.00000    
      7461 IM1      70       IM1      N1       ND2R5A    1.92920       13.6070           0  -1.06300       1.30000    
      7462 IM1      70       IM1      DN1      DRUD     -1.78920      0.400000           0   0.00000       0.00000    
      7463 IM1      70       IM1      C2       CD2R5A    1.66810       11.6110           0  -1.37800       1.30000    
      7464 IM1      70       IM1      DC2      DRUD     -2.03710      0.400000           0   0.00000       0.00000    
      7465 IM1      70       IM1      H4       HDR5A    0.150000       1.00800           0   0.00000       0.00000    
      7466 IM1      70       IM1      C3       CD2R5A    2.22510       11.6110           0  -1.37800       1.30000    
      7467 IM1      70       IM1      DC3      DRUD     -2.03710      0.400000           0   0.00000       0.00000    
      7468 IM1      70       IM1      H5       HDR5A    0.530000E-01   1.00800           0   0.00000       0.00000    
      7469 IM1      70       IM1      C4       CD2R5B    1.73480       11.6110           0 -0.868000       1.30000    
      7470 IM1      70       IM1      DC4      DRUD     -1.61680      0.400000           0   0.00000       0.00000    
      7471 IM1      70       IM1      H6       HDR5B    0.730000E-01   1.00800           0   0.00000       0.00000    
      7472 IM1      70       IM1      N2       ND2R5B    1.59050       13.6070           0 -0.840000       1.00000    
      7473 IM1      70       IM1      DN2      DRUD     -1.59050      0.400000           0   0.00000       0.00000    
      7474 IM1      70       IM1      H7       DUMH      0.00000       1.00800           0   0.00000       0.00000    
      7475 IM1      70       IM1      LPN21    LPD     -0.474000       0.00000          -1   0.00000       0.00000    
      7476 IM1      71       IM1      C1       CD33G     1.64330       11.6110           0  -1.08100       1.00000    
      7477 IM1      71       IM1      DC1      DRUD     -1.80430      0.400000           0   0.00000       0.00000    
      7478 IM1      71       IM1      H1       HDA3A    0.940000E-01   1.00800           0   0.00000       0.00000    
      7479 IM1      71       IM1      H2       HDA3A    0.940000E-01   1.00800           0   0.00000       0.00000    
      7480 IM1      71       IM1      H3       HDA3A    0.940000E-01   1.00800           0   0.00000       0.00000    
      7481 IM1      71       IM1      N1       ND2R5A    1.92920       13.6070           0  -1.06300       1.30000    
      7482 IM1      71       IM1      DN1      DRUD     -1.78920      0.400000           0   0.00000       0.00000    
      7483 IM1      71       IM1      C2       CD2R5A    1.66810       11.6110           0  -1.37800       1.30000    
      7484 IM1      71       IM1      DC2      DRUD     -2.03710      0.400000           0   0.00000       0.00000    
      7485 IM1      71       IM1      H4       HDR5A    0.150000       1.00800           0   0.00000       0.00000    
      7486 IM1      71       IM1      C3       CD2R5A    2.22510       11.6110           0  -1.37800       1.30000    
      7487 IM1      71       IM1      DC3      DRUD     -2.03710      0.400000           0   0.00000       0.00000    
      7488 IM1      71       IM1      H5       HDR5A    0.530000E-01   1.00800           0   0.00000       0.00000    
      7489 IM1      71       IM1      C4       CD2R5B    1.73480       11.6110           0 -0.868000       1.30000    
      7490 IM1      71       IM1      DC4      DRUD     -1.61680      0.400000           0   0.00000       0.00000    
      7491 IM1      71       IM1      H6       HDR5B    0.730000E-01   1.00800           0   0.00000       0.00000    
      7492 IM1      71       IM1      N2       ND2R5B    1.59050       13.6070           0 -0.840000       1.00000    
      7493 IM1      71       IM1      DN2      DRUD     -1.59050      0.400000           0   0.00000       0.00000    
      7494 IM1      71       IM1      H7       DUMH      0.00000       1.00800           0   0.00000       0.00000    
      7495 IM1      71       IM1      LPN21    LPD     -0.474000       0.00000          -1   0.00000       0.00000    
      7496 IM1      72       IM1      C1       CD33G     1.64330       11.6110           0  -1.08100       1.00000    
      7497 IM1      72       IM1      DC1      DRUD     -1.80430      0.400000           0   0.00000       0.00000    
      7498 IM1      72       IM1      H1       HDA3A    0.940000E-01   1.00800           0   0.00000       0.00000    
      7499 IM1      72       IM1      H2       HDA3A    0.940000E-01   1.00800           0   0.00000       0.00000    
      7500 IM1      72       IM1      H3       HDA3A    0.940000E-01   1.00800           0   0.00000       0.00000    
      7501 IM1      72       IM1      N1       ND2R5A    1.92920       13.6070           0  -1.06300       1.30000    
      7502 IM1      72       IM1      DN1      DRUD     -1.78920      0.400000           0   0.00000       0.00000    
      7503 IM1      72       IM1      C2       CD2R5A    1.66810       11.6110           0  -1.37800       1.30000    
      7504 IM1      72       IM1      DC2      DRUD     -2.03710      0.400000           0   0.00000       0.00000    
      7505 IM1      72       IM1      H4       HDR5A    0.150000       1.00800           0   0.00000       0.00000    
      7506 IM1      72       IM1      C3       CD2R5A    2.22510       11.6110           0  -1.37800       1.30000    
      7507 IM1      72       IM1      DC3      DRUD     -2.03710      0.400000           0   0.00000       0.00000    
      7508 IM1      72       IM1      H5       HDR5A    0.530000E-01   1.00800           0   0.00000       0.00000    
      7509 IM1      72       IM1      C4       CD2R5B    1.73480       11.6110           0 -0.868000       1.30000    
      7510 IM1      72       IM1      DC4      DRUD     -1.61680      0.400000           0   0.00000       0.00000    
      7511 IM1      72       IM1      H6       HDR5B    0.730000E-01   1.00800           0   0.00000       0.00000    
      7512 IM1      72       IM1      N2       ND2R5B    1.59050       13.6070           0 -0.840000       1.00000    
      7513 IM1      72       IM1      DN2      DRUD     -1.59050      0.400000           0   0.00000       0.00000    
      7514 IM1      72       IM1      H7       DUMH      0.00000       1.00800           0   0.00000       0.00000    
      7515 IM1      72       IM1      LPN21    LPD     -0.474000       0.00000          -1   0.00000       0.00000    
      7516 IM1      73       IM1      C1       CD33G     1.64330       11.6110           0  -1.08100       1.00000    
      7517 IM1      73       IM1      DC1      DRUD     -1.80430      0.400000           0   0.00000       0.00000    
      7518 IM1      73       IM1      H1       HDA3A    0.940000E-01   1.00800           0   0.00000       0.00000    
      7519 IM1      73       IM1      H2       HDA3A    0.940000E-01   1.00800           0   0.00000       0.00000    
      7520 IM1      73       IM1      H3       HDA3A    0.940000E-01   1.00800           0   0.00000       0.00000    
      7521 IM1      73       IM1      N1       ND2R5A    1.92920       13.6070           0  -1.06300       1.30000    
      7522 IM1      73       IM1      DN1      DRUD     -1.78920      0.400000           0   0.00000       0.00000    
      7523 IM1      73       IM1      C2       CD2R5A    1.66810       11.6110           0  -1.37800       1.30000    
      7524 IM1      73       IM1      DC2      DRUD     -2.03710      0.400000           0   0.00000       0.00000    
      7525 IM1      73       IM1      H4       HDR5A    0.150000       1.00800           0   0.00000       0.00000    
      7526 IM1      73       IM1      C3       CD2R5A    2.22510       11.6110           0  -1.37800       1.30000    
      7527 IM1      73       IM1      DC3      DRUD     -2.03710      0.400000           0   0.00000       0.00000    
      7528 IM1      73       IM1      H5       HDR5A    0.530000E-01   1.00800           0   0.00000       0.00000    
      7529 IM1      73       IM1      C4       CD2R5B    1.73480       11.6110           0 -0.868000       1.30000    
      7530 IM1      73       IM1      DC4      DRUD     -1.61680      0.400000           0   0.00000       0.00000    
      7531 IM1      73       IM1      H6       HDR5B    0.730000E-01   1.00800           0   0.00000       0.00000    
      7532 IM1      73       IM1      N2       ND2R5B    1.59050       13.6070           0 -0.840000       1.00000    
      7533 IM1      73       IM1      DN2      DRUD     -1.59050      0.400000           0   0.00000       0.00000    
      7534 IM1      73       IM1      H7       DUMH      0.00000       1.00800           0   0.00000       0.00000    
      7535 IM1      73       IM1      LPN21    LPD     -0.474000       0.00000          -1   0.00000       0.00000    
      7536 IM1      74       IM1      C1       CD33G     1.64330       11.6110           0  -1.08100       1.00000    
      7537 IM1      74       IM1      DC1      DRUD     -1.80430      0.400000           0   0.00000       0.00000    
      7538 IM1      74       IM1      H1       HDA3A    0.940000E-01   1.00800           0   0.00000       0.00000    
      7539 IM1      74       IM1      H2       HDA3A    0.940000E-01   1.00800           0   0.00000       0.00000    
      7540 IM1      74       IM1      H3       HDA3A    0.940000E-01   1.00800           0   0.00000       0.00000    
      7541 IM1      74       IM1      N1       ND2R5A    1.92920       13.6070           0  -1.06300       1.30000    
      7542 IM1      74       IM1      DN1      DRUD     -1.78920      0.400000           0   0.00000       0.00000    
      7543 IM1      74       IM1      C2       CD2R5A    1.66810       11.6110           0  -1.37800       1.30000    
      7544 IM1      74       IM1      DC2      DRUD     -2.03710      0.400000           0   0.00000       0.00000    
      7545 IM1      74       IM1      H4       HDR5A    0.150000       1.00800           0   0.00000       0.00000    
      7546 IM1      74       IM1      C3       CD2R5A    2.22510       11.6110           0  -1.37800       1.30000    
      7547 IM1      74       IM1      DC3      DRUD     -2.03710      0.400000           0   0.00000       0.00000    
      7548 IM1      74       IM1      H5       HDR5A    0.530000E-01   1.00800           0   0.00000       0.00000    
      7549 IM1      74       IM1      C4       CD2R5B    1.73480       11.6110           0 -0.868000       1.30000    
      7550 IM1      74       IM1      DC4      DRUD     -1.61680      0.400000           0   0.00000       0.00000    
      7551 IM1      74       IM1      H6       HDR5B    0.730000E-01   1.00800           0   0.00000       0.00000    
      7552 IM1      74       IM1      N2       ND2R5B    1.59050       13.6070           0 -0.840000       1.00000    
      7553 IM1      74       IM1      DN2      DRUD     -1.59050      0.400000           0   0.00000       0.00000    
      7554 IM1      74       IM1      H7       DUMH      0.00000       1.00800           0   0.00000       0.00000    
      7555 IM1      74       IM1      LPN21    LPD     -0.474000       0.00000          -1   0.00000       0.00000    
      7556 IM1      75       IM1      C1       CD33G     1.64330       11.6110           0  -1.08100       1.00000    
      7557 IM1      75       IM1      DC1      DRUD     -1.80430      0.400000           0   0.00000       0.00000    
      7558 IM1      75       IM1      H1       HDA3A    0.940000E-01   1.00800           0   0.00000       0.00000    
      7559 IM1      75       IM1      H2       HDA3A    0.940000E-01   1.00800           0   0.00000       0.00000    
      7560 IM1      75       IM1      H3       HDA3A    0.940000E-01   1.00800           0   0.00000       0.00000    
      7561 IM1      75       IM1      N1       ND2R5A    1.92920       13.6070           0  -1.06300       1.30000    
      7562 IM1      75       IM1      DN1      DRUD     -1.78920      0.400000           0   0.00000       0.00000    
      7563 IM1      75       IM1      C2       CD2R5A    1.66810       11.6110           0  -1.37800       1.30000    
      7564 IM1      75       IM1      DC2      DRUD     -2.03710      0.400000           0   0.00000       0.00000    
      7565 IM1      75       IM1      H4       HDR5A    0.150000       1.00800           0   0.00000       0.00000    
      7566 IM1      75       IM1      C3       CD2R5A    2.22510       11.6110           0  -1.37800       1.30000    
      7567 IM1      75       IM1      DC3      DRUD     -2.03710      0.400000           0   0.00000       0.00000    
      7568 IM1      75       IM1      H5       HDR5A    0.530000E-01   1.00800           0   0.00000       0.00000    
      7569 IM1      75       IM1      C4       CD2R5B    1.73480       11.6110           0 -0.868000       1.30000    
      7570 IM1      75       IM1      DC4      DRUD     -1.61680      0.400000           0   0.00000       0.00000    
      7571 IM1      75       IM1      H6       HDR5B    0.730000E-01   1.00800           0   0.00000       0.00000    
      7572 IM1      75       IM1      N2       ND2R5B    1.59050       13.6070           0 -0.840000       1.00000    
      7573 IM1      75       IM1      DN2      DRUD     -1.59050      0.400000           0   0.00000       0.00000    
      7574 IM1      75       IM1      H7       DUMH      0.00000       1.00800           0   0.00000       0.00000    
      7575 IM1      75       IM1      LPN21    LPD     -0.474000       0.00000          -1   0.00000       0.00000    
      7576 IM1      76       IM1      C1       CD33G     1.64330       11.6110           0  -1.08100       1.00000    
      7577 IM1      76       IM1      DC1      DRUD     -1.80430      0.400000           0   0.00000       0.00000    
      7578 IM1      76       IM1      H1       HDA3A    0.940000E-01   1.00800           0   0.00000       0.00000    
      7579 IM1      76       IM1      H2       HDA3A    0.940000E-01   1.00800           0   0.00000       0.00000    
      7580 IM1      76       IM1      H3       HDA3A    0.940000E-01   1.00800           0   0.00000       0.00000    
      7581 IM1      76       IM1      N1       ND2R5A    1.92920       13.6070           0  -1.06300       1.30000    
      7582 IM1      76       IM1      DN1      DRUD     -1.78920      0.400000           0   0.00000       0.00000    
      7583 IM1      76       IM1      C2       CD2R5A    1.66810       11.6110           0  -1.37800       1.30000    
      7584 IM1      76       IM1      DC2      DRUD     -2.03710      0.400000           0   0.00000       0.00000    
      7585 IM1      76       IM1      H4       HDR5A    0.150000       1.00800           0   0.00000       0.00000    
      7586 IM1      76       IM1      C3       CD2R5A    2.22510       11.6110           0  -1.37800       1.30000    
      7587 IM1      76       IM1      DC3      DRUD     -2.03710      0.400000           0   0.00000       0.00000    
      7588 IM1      76       IM1      H5       HDR5A    0.530000E-01   1.00800           0   0.00000       0.00000    
      7589 IM1      76       IM1      C4       CD2R5B    1.73480       11.6110           0 -0.868000       1.30000    
      7590 IM1      76       IM1      DC4      DRUD     -1.61680      0.400000           0   0.00000       0.00000    
      7591 IM1      76       IM1      H6       HDR5B    0.730000E-01   1.00800           0   0.00000       0.00000    
      7592 IM1      76       IM1      N2       ND2R5B    1.59050       13.6070           0 -0.840000       1.00000    
      7593 IM1      76       IM1      DN2      DRUD     -1.59050      0.400000           0   0.00000       0.00000    
      7594 IM1      76       IM1      H7       DUMH      0.00000       1.00800           0   0.00000       0.00000    
      7595 IM1      76       IM1      LPN21    LPD     -0.474000       0.00000          -1   0.00000       0.00000    
      7596 IM1      77       IM1      C1       CD33G     1.64330       11.6110           0  -1.08100       1.00000    
      7597 IM1      77       IM1      DC1      DRUD     -1.80430      0.400000           0   0.00000       0.00000    
      7598 IM1      77       IM1      H1       HDA3A    0.940000E-01   1.00800           0   0.00000       0.00000    
      7599 IM1      77       IM1      H2       HDA3A    0.940000E-01   1.00800           0   0.00000       0.00000    
      7600 IM1      77       IM1      H3       HDA3A    0.940000E-01   1.00800           0   0.00000       0.00000    
      7601 IM1      77       IM1      N1       ND2R5A    1.92920       13.6070           0  -1.06300       1.30000    
      7602 IM1      77       IM1      DN1      DRUD     -1.78920      0.400000           0   0.00000       0.00000    
      7603 IM1      77       IM1      C2       CD2R5A    1.66810       11.6110           0  -1.37800       1.30000    
      7604 IM1      77       IM1      DC2      DRUD     -2.03710      0.400000           0   0.00000       0.00000    
      7605 IM1      77       IM1      H4       HDR5A    0.150000       1.00800           0   0.00000       0.00000    
      7606 IM1      77       IM1      C3       CD2R5A    2.22510       11.6110           0  -1.37800       1.30000    
      7607 IM1      77       IM1      DC3      DRUD     -2.03710      0.400000           0   0.00000       0.00000    
      7608 IM1      77       IM1      H5       HDR5A    0.530000E-01   1.00800           0   0.00000       0.00000    
      7609 IM1      77       IM1      C4       CD2R5B    1.73480       11.6110           0 -0.868000       1.30000    
      7610 IM1      77       IM1      DC4      DRUD     -1.61680      0.400000           0   0.00000       0.00000    
      7611 IM1      77       IM1      H6       HDR5B    0.730000E-01   1.00800           0   0.00000       0.00000    
      7612 IM1      77       IM1      N2       ND2R5B    1.59050       13.6070           0 -0.840000       1.00000    
      7613 IM1      77       IM1      DN2      DRUD     -1.59050      0.400000           0   0.00000       0.00000    
      7614 IM1      77       IM1      H7       DUMH      0.00000       1.00800           0   0.00000       0.00000    
      7615 IM1      77       IM1      LPN21    LPD     -0.474000       0.00000          -1   0.00000       0.00000    
      7616 IM1      78       IM1      C1       CD33G     1.64330       11.6110           0  -1.08100       1.00000    
      7617 IM1      78       IM1      DC1      DRUD     -1.80430      0.400000           0   0.00000       0.00000    
      7618 IM1      78       IM1      H1       HDA3A    0.940000E-01   1.00800           0   0.00000       0.00000    
      7619 IM1      78       IM1      H2       HDA3A    0.940000E-01   1.00800           0   0.00000       0.00000    
      7620 IM1      78       IM1      H3       HDA3A    0.940000E-01   1.00800           0   0.00000       0.00000    
      7621 IM1      78       IM1      N1       ND2R5A    1.92920       13.6070           0  -1.06300       1.30000    
      7622 IM1      78       IM1      DN1      DRUD     -1.78920      0.400000           0   0.00000       0.00000    
      7623 IM1      78       IM1      C2       CD2R5A    1.66810       11.6110           0  -1.37800       1.30000    
      7624 IM1      78       IM1      DC2      DRUD     -2.03710      0.400000           0   0.00000       0.00000    
      7625 IM1      78       IM1      H4       HDR5A    0.150000       1.00800           0   0.00000       0.00000    
      7626 IM1      78       IM1      C3       CD2R5A    2.22510       11.6110           0  -1.37800       1.30000    
      7627 IM1      78       IM1      DC3      DRUD     -2.03710      0.400000           0   0.00000       0.00000    
      7628 IM1      78       IM1      H5       HDR5A    0.530000E-01   1.00800           0   0.00000       0.00000    
      7629 IM1      78       IM1      C4       CD2R5B    1.73480       11.6110           0 -0.868000       1.30000    
      7630 IM1      78       IM1      DC4      DRUD     -1.61680      0.400000           0   0.00000       0.00000    
      7631 IM1      78       IM1      H6       HDR5B    0.730000E-01   1.00800           0   0.00000       0.00000    
      7632 IM1      78       IM1      N2       ND2R5B    1.59050       13.6070           0 -0.840000       1.00000    
      7633 IM1      78       IM1      DN2      DRUD     -1.59050      0.400000           0   0.00000       0.00000    
      7634 IM1      78       IM1      H7       DUMH      0.00000       1.00800           0   0.00000       0.00000    
      7635 IM1      78       IM1      LPN21    LPD     -0.474000       0.00000          -1   0.00000       0.00000    
      7636 IM1      79       IM1      C1       CD33G     1.64330       11.6110           0  -1.08100       1.00000    
      7637 IM1      79       IM1      DC1      DRUD     -1.80430      0.400000           0   0.00000       0.00000    
      7638 IM1      79       IM1      H1       HDA3A    0.940000E-01   1.00800           0   0.00000       0.00000    
      7639 IM1      79       IM1      H2       HDA3A    0.940000E-01   1.00800           0   0.00000       0.00000    
      7640 IM1      79       IM1      H3       HDA3A    0.940000E-01   1.00800           0   0.00000       0.00000    
      7641 IM1      79       IM1      N1       ND2R5A    1.92920       13.6070           0  -1.06300       1.30000    
      7642 IM1      79       IM1      DN1      DRUD     -1.78920      0.400000           0   0.00000       0.00000    
      7643 IM1      79       IM1      C2       CD2R5A    1.66810       11.6110           0  -1.37800       1.30000    
      7644 IM1      79       IM1      DC2      DRUD     -2.03710      0.400000           0   0.00000       0.00000    
      7645 IM1      79       IM1      H4       HDR5A    0.150000       1.00800           0   0.00000       0.00000    
      7646 IM1      79       IM1      C3       CD2R5A    2.22510       11.6110           0  -1.37800       1.30000    
      7647 IM1      79       IM1      DC3      DRUD     -2.03710      0.400000           0   0.00000       0.00000    
      7648 IM1      79       IM1      H5       HDR5A    0.530000E-01   1.00800           0   0.00000       0.00000    
      7649 IM1      79       IM1      C4       CD2R5B    1.73480       11.6110           0 -0.868000       1.30000    
      7650 IM1      79       IM1      DC4      DRUD     -1.61680      0.400000           0   0.00000       0.00000    
      7651 IM1      79       IM1      H6       HDR5B    0.730000E-01   1.00800           0   0.00000       0.00000    
      7652 IM1      79       IM1      N2       ND2R5B    1.59050       13.6070           0 -0.840000       1.00000    
      7653 IM1      79       IM1      DN2      DRUD     -1.59050      0.400000           0   0.00000       0.00000    
      7654 IM1      79       IM1      H7       DUMH      0.00000       1.00800           0   0.00000       0.00000    
      7655 IM1      79       IM1      LPN21    LPD     -0.474000       0.00000          -1   0.00000       0.00000    
      7656 IM1      80       IM1      C1       CD33G     1.64330       11.6110           0  -1.08100       1.00000    
      7657 IM1      80       IM1      DC1      DRUD     -1.80430      0.400000           0   0.00000       0.00000    
      7658 IM1      80       IM1      H1       HDA3A    0.940000E-01   1.00800           0   0.00000       0.00000    
      7659 IM1      80       IM1      H2       HDA3A    0.940000E-01   1.00800           0   0.00000       0.00000    
      7660 IM1      80       IM1      H3       HDA3A    0.940000E-01   1.00800           0   0.00000       0.00000    
      7661 IM1      80       IM1      N1       ND2R5A    1.92920       13.6070           0  -1.06300       1.30000    
      7662 IM1      80       IM1      DN1      DRUD     -1.78920      0.400000           0   0.00000       0.00000    
      7663 IM1      80       IM1      C2       CD2R5A    1.66810       11.6110           0  -1.37800       1.30000    
      7664 IM1      80       IM1      DC2      DRUD     -2.03710      0.400000           0   0.00000       0.00000    
      7665 IM1      80       IM1      H4       HDR5A    0.150000       1.00800           0   0.00000       0.00000    
      7666 IM1      80       IM1      C3       CD2R5A    2.22510       11.6110           0  -1.37800       1.30000    
      7667 IM1      80       IM1      DC3      DRUD     -2.03710      0.400000           0   0.00000       0.00000    
      7668 IM1      80       IM1      H5       HDR5A    0.530000E-01   1.00800           0   0.00000       0.00000    
      7669 IM1      80       IM1      C4       CD2R5B    1.73480       11.6110           0 -0.868000       1.30000    
      7670 IM1      80       IM1      DC4      DRUD     -1.61680      0.400000           0   0.00000       0.00000    
      7671 IM1      80       IM1      H6       HDR5B    0.730000E-01   1.00800           0   0.00000       0.00000    
      7672 IM1      80       IM1      N2       ND2R5B    1.59050       13.6070           0 -0.840000       1.00000    
      7673 IM1      80       IM1      DN2      DRUD     -1.59050      0.400000           0   0.00000       0.00000    
      7674 IM1      80       IM1      H7       DUMH      0.00000       1.00800           0   0.00000       0.00000    
      7675 IM1      80       IM1      LPN21    LPD     -0.474000       0.00000          -1   0.00000       0.00000    
      7676 IM1      81       IM1      C1       CD33G     1.64330       11.6110           0  -1.08100       1.00000    
      7677 IM1      81       IM1      DC1      DRUD     -1.80430      0.400000           0   0.00000       0.00000    
      7678 IM1      81       IM1      H1       HDA3A    0.940000E-01   1.00800           0   0.00000       0.00000    
      7679 IM1      81       IM1      H2       HDA3A    0.940000E-01   1.00800           0   0.00000       0.00000    
      7680 IM1      81       IM1      H3       HDA3A    0.940000E-01   1.00800           0   0.00000       0.00000    
      7681 IM1      81       IM1      N1       ND2R5A    1.92920       13.6070           0  -1.06300       1.30000    
      7682 IM1      81       IM1      DN1      DRUD     -1.78920      0.400000           0   0.00000       0.00000    
      7683 IM1      81       IM1      C2       CD2R5A    1.66810       11.6110           0  -1.37800       1.30000    
      7684 IM1      81       IM1      DC2      DRUD     -2.03710      0.400000           0   0.00000       0.00000    
      7685 IM1      81       IM1      H4       HDR5A    0.150000       1.00800           0   0.00000       0.00000    
      7686 IM1      81       IM1      C3       CD2R5A    2.22510       11.6110           0  -1.37800       1.30000    
      7687 IM1      81       IM1      DC3      DRUD     -2.03710      0.400000           0   0.00000       0.00000    
      7688 IM1      81       IM1      H5       HDR5A    0.530000E-01   1.00800           0   0.00000       0.00000    
      7689 IM1      81       IM1      C4       CD2R5B    1.73480       11.6110           0 -0.868000       1.30000    
      7690 IM1      81       IM1      DC4      DRUD     -1.61680      0.400000           0   0.00000       0.00000    
      7691 IM1      81       IM1      H6       HDR5B    0.730000E-01   1.00800           0   0.00000       0.00000    
      7692 IM1      81       IM1      N2       ND2R5B    1.59050       13.6070           0 -0.840000       1.00000    
      7693 IM1      81       IM1      DN2      DRUD     -1.59050      0.400000           0   0.00000       0.00000    
      7694 IM1      81       IM1      H7       DUMH      0.00000       1.00800           0   0.00000       0.00000    
      7695 IM1      81       IM1      LPN21    LPD     -0.474000       0.00000          -1   0.00000       0.00000    
      7696 IM1      82       IM1      C1       CD33G     1.64330       11.6110           0  -1.08100       1.00000    
      7697 IM1      82       IM1      DC1      DRUD     -1.80430      0.400000           0   0.00000       0.00000    
      7698 IM1      82       IM1      H1       HDA3A    0.940000E-01   1.00800           0   0.00000       0.00000    
      7699 IM1      82       IM1      H2       HDA3A    0.940000E-01   1.00800           0   0.00000       0.00000    
      7700 IM1      82       IM1      H3       HDA3A    0.940000E-01   1.00800           0   0.00000       0.00000    
      7701 IM1      82       IM1      N1       ND2R5A    1.92920       13.6070           0  -1.06300       1.30000    
      7702 IM1      82       IM1      DN1      DRUD     -1.78920      0.400000           0   0.00000       0.00000    
      7703 IM1      82       IM1      C2       CD2R5A    1.66810       11.6110           0  -1.37800       1.30000    
      7704 IM1      82       IM1      DC2      DRUD     -2.03710      0.400000           0   0.00000       0.00000    
      7705 IM1      82       IM1      H4       HDR5A    0.150000       1.00800           0   0.00000       0.00000    
      7706 IM1      82       IM1      C3       CD2R5A    2.22510       11.6110           0  -1.37800       1.30000    
      7707 IM1      82       IM1      DC3      DRUD     -2.03710      0.400000           0   0.00000       0.00000    
      7708 IM1      82       IM1      H5       HDR5A    0.530000E-01   1.00800           0   0.00000       0.00000    
      7709 IM1      82       IM1      C4       CD2R5B    1.73480       11.6110           0 -0.868000       1.30000    
      7710 IM1      82       IM1      DC4      DRUD     -1.61680      0.400000           0   0.00000       0.00000    
      7711 IM1      82       IM1      H6       HDR5B    0.730000E-01   1.00800           0   0.00000       0.00000    
      7712 IM1      82       IM1      N2       ND2R5B    1.59050       13.6070           0 -0.840000       1.00000    
      7713 IM1      82       IM1      DN2      DRUD     -1.59050      0.400000           0   0.00000       0.00000    
      7714 IM1      82       IM1      H7       DUMH      0.00000       1.00800           0   0.00000       0.00000    
      7715 IM1      82       IM1      LPN21    LPD     -0.474000       0.00000          -1   0.00000       0.00000    
      7716 IM1      83       IM1      C1       CD33G     1.64330       11.6110           0  -1.08100       1.00000    
      7717 IM1      83       IM1      DC1      DRUD     -1.80430      0.400000           0   0.00000       0.00000    
      7718 IM1      83       IM1      H1       HDA3A    0.940000E-01   1.00800           0   0.00000       0.00000    
      7719 IM1      83       IM1      H2       HDA3A    0.940000E-01   1.00800           0   0.00000       0.00000    
      7720 IM1      83       IM1      H3       HDA3A    0.940000E-01   1.00800           0   0.00000       0.00000    
      7721 IM1      83       IM1      N1       ND2R5A    1.92920       13.6070           0  -1.06300       1.30000    
      7722 IM1      83       IM1      DN1      DRUD     -1.78920      0.400000           0   0.00000       0.00000    
      7723 IM1      83       IM1      C2       CD2R5A    1.66810       11.6110           0  -1.37800       1.30000    
      7724 IM1      83       IM1      DC2      DRUD     -2.03710      0.400000           0   0.00000       0.00000    
      7725 IM1      83       IM1      H4       HDR5A    0.150000       1.00800           0   0.00000       0.00000    
      7726 IM1      83       IM1      C3       CD2R5A    2.22510       11.6110           0  -1.37800       1.30000    
      7727 IM1      83       IM1      DC3      DRUD     -2.03710      0.400000           0   0.00000       0.00000    
      7728 IM1      83       IM1      H5       HDR5A    0.530000E-01   1.00800           0   0.00000       0.00000    
      7729 IM1      83       IM1      C4       CD2R5B    1.73480       11.6110           0 -0.868000       1.30000    
      7730 IM1      83       IM1      DC4      DRUD     -1.61680      0.400000           0   0.00000       0.00000    
      7731 IM1      83       IM1      H6       HDR5B    0.730000E-01   1.00800           0   0.00000       0.00000    
      7732 IM1      83       IM1      N2       ND2R5B    1.59050       13.6070           0 -0.840000       1.00000    
      7733 IM1      83       IM1      DN2      DRUD     -1.59050      0.400000           0   0.00000       0.00000    
      7734 IM1      83       IM1      H7       DUMH      0.00000       1.00800           0   0.00000       0.00000    
      7735 IM1      83       IM1      LPN21    LPD     -0.474000       0.00000          -1   0.00000       0.00000    
      7736 IM1      84       IM1      C1       CD33G     1.64330       11.6110           0  -1.08100       1.00000    
      7737 IM1      84       IM1      DC1      DRUD     -1.80430      0.400000           0   0.00000       0.00000    
      7738 IM1      84       IM1      H1       HDA3A    0.940000E-01   1.00800           0   0.00000       0.00000    
      7739 IM1      84       IM1      H2       HDA3A    0.940000E-01   1.00800           0   0.00000       0.00000    
      7740 IM1      84       IM1      H3       HDA3A    0.940000E-01   1.00800           0   0.00000       0.00000    
      7741 IM1      84       IM1      N1       ND2R5A    1.92920       13.6070           0  -1.06300       1.30000    
      7742 IM1      84       IM1      DN1      DRUD     -1.78920      0.400000           0   0.00000       0.00000    
      7743 IM1      84       IM1      C2       CD2R5A    1.66810       11.6110           0  -1.37800       1.30000    
      7744 IM1      84       IM1      DC2      DRUD     -2.03710      0.400000           0   0.00000       0.00000    
      7745 IM1      84       IM1      H4       HDR5A    0.150000       1.00800           0   0.00000       0.00000    
      7746 IM1      84       IM1      C3       CD2R5A    2.22510       11.6110           0  -1.37800       1.30000    
      7747 IM1      84       IM1      DC3      DRUD     -2.03710      0.400000           0   0.00000       0.00000    
      7748 IM1      84       IM1      H5       HDR5A    0.530000E-01   1.00800           0   0.00000       0.00000    
      7749 IM1      84       IM1      C4       CD2R5B    1.73480       11.6110           0 -0.868000       1.30000    
      7750 IM1      84       IM1      DC4      DRUD     -1.61680      0.400000           0   0.00000       0.00000    
      7751 IM1      84       IM1      H6       HDR5B    0.730000E-01   1.00800           0   0.00000       0.00000    
      7752 IM1      84       IM1      N2       ND2R5B    1.59050       13.6070           0 -0.840000       1.00000    
      7753 IM1      84       IM1      DN2      DRUD     -1.59050      0.400000           0   0.00000       0.00000    
      7754 IM1      84       IM1      H7       DUMH      0.00000       1.00800           0   0.00000       0.00000    
      7755 IM1      84       IM1      LPN21    LPD     -0.474000       0.00000          -1   0.00000       0.00000    
      7756 IM1      85       IM1      C1       CD33G     1.64330       11.6110           0  -1.08100       1.00000    
      7757 IM1      85       IM1      DC1      DRUD     -1.80430      0.400000           0   0.00000       0.00000    
      7758 IM1      85       IM1      H1       HDA3A    0.940000E-01   1.00800           0   0.00000       0.00000    
      7759 IM1      85       IM1      H2       HDA3A    0.940000E-01   1.00800           0   0.00000       0.00000    
      7760 IM1      85       IM1      H3       HDA3A    0.940000E-01   1.00800           0   0.00000       0.00000    
      7761 IM1      85       IM1      N1       ND2R5A    1.92920       13.6070           0  -1.06300       1.30000    
      7762 IM1      85       IM1      DN1      DRUD     -1.78920      0.400000           0   0.00000       0.00000    
      7763 IM1      85       IM1      C2       CD2R5A    1.66810       11.6110           0  -1.37800       1.30000    
      7764 IM1      85       IM1      DC2      DRUD     -2.03710      0.400000           0   0.00000       0.00000    
      7765 IM1      85       IM1      H4       HDR5A    0.150000       1.00800           0   0.00000       0.00000    
      7766 IM1      85       IM1      C3       CD2R5A    2.22510       11.6110           0  -1.37800       1.30000    
      7767 IM1      85       IM1      DC3      DRUD     -2.03710      0.400000           0   0.00000       0.00000    
      7768 IM1      85       IM1      H5       HDR5A    0.530000E-01   1.00800           0   0.00000       0.00000    
      7769 IM1      85       IM1      C4       CD2R5B    1.73480       11.6110           0 -0.868000       1.30000    
      7770 IM1      85       IM1      DC4      DRUD     -1.61680      0.400000           0   0.00000       0.00000    
      7771 IM1      85       IM1      H6       HDR5B    0.730000E-01   1.00800           0   0.00000       0.00000    
      7772 IM1      85       IM1      N2       ND2R5B    1.59050       13.6070           0 -0.840000       1.00000    
      7773 IM1      85       IM1      DN2      DRUD     -1.59050      0.400000           0   0.00000       0.00000    
      7774 IM1      85       IM1      H7       DUMH      0.00000       1.00800           0   0.00000       0.00000    
      7775 IM1      85       IM1      LPN21    LPD     -0.474000       0.00000          -1   0.00000       0.00000    
      7776 IM1      86       IM1      C1       CD33G     1.64330       11.6110           0  -1.08100       1.00000    
      7777 IM1      86       IM1      DC1      DRUD     -1.80430      0.400000           0   0.00000       0.00000    
      7778 IM1      86       IM1      H1       HDA3A    0.940000E-01   1.00800           0   0.00000       0.00000    
      7779 IM1      86       IM1      H2       HDA3A    0.940000E-01   1.00800           0   0.00000       0.00000    
      7780 IM1      86       IM1      H3       HDA3A    0.940000E-01   1.00800           0   0.00000       0.00000    
      7781 IM1      86       IM1      N1       ND2R5A    1.92920       13.6070           0  -1.06300       1.30000    
      7782 IM1      86       IM1      DN1      DRUD     -1.78920      0.400000           0   0.00000       0.00000    
      7783 IM1      86       IM1      C2       CD2R5A    1.66810       11.6110           0  -1.37800       1.30000    
      7784 IM1      86       IM1      DC2      DRUD     -2.03710      0.400000           0   0.00000       0.00000    
      7785 IM1      86       IM1      H4       HDR5A    0.150000       1.00800           0   0.00000       0.00000    
      7786 IM1      86       IM1      C3       CD2R5A    2.22510       11.6110           0  -1.37800       1.30000    
      7787 IM1      86       IM1      DC3      DRUD     -2.03710      0.400000           0   0.00000       0.00000    
      7788 IM1      86       IM1      H5       HDR5A    0.530000E-01   1.00800           0   0.00000       0.00000    
      7789 IM1      86       IM1      C4       CD2R5B    1.73480       11.6110           0 -0.868000       1.30000    
      7790 IM1      86       IM1      DC4      DRUD     -1.61680      0.400000           0   0.00000       0.00000    
      7791 IM1      86       IM1      H6       HDR5B    0.730000E-01   1.00800           0   0.00000       0.00000    
      7792 IM1      86       IM1      N2       ND2R5B    1.59050       13.6070           0 -0.840000       1.00000    
      7793 IM1      86       IM1      DN2      DRUD     -1.59050      0.400000           0   0.00000       0.00000    
      7794 IM1      86       IM1      H7       DUMH      0.00000       1.00800           0   0.00000       0.00000    
      7795 IM1      86       IM1      LPN21    LPD     -0.474000       0.00000          -1   0.00000       0.00000    
      7796 IM1      87       IM1      C1       CD33G     1.64330       11.6110           0  -1.08100       1.00000    
      7797 IM1      87       IM1      DC1      DRUD     -1.80430      0.400000           0   0.00000       0.00000    
      7798 IM1      87       IM1      H1       HDA3A    0.940000E-01   1.00800           0   0.00000       0.00000    
      7799 IM1      87       IM1      H2       HDA3A    0.940000E-01   1.00800           0   0.00000       0.00000    
      7800 IM1      87       IM1      H3       HDA3A    0.940000E-01   1.00800           0   0.00000       0.00000    
      7801 IM1      87       IM1      N1       ND2R5A    1.92920       13.6070           0  -1.06300       1.30000    
      7802 IM1      87       IM1      DN1      DRUD     -1.78920      0.400000           0   0.00000       0.00000    
      7803 IM1      87       IM1      C2       CD2R5A    1.66810       11.6110           0  -1.37800       1.30000    
      7804 IM1      87       IM1      DC2      DRUD     -2.03710      0.400000           0   0.00000       0.00000    
      7805 IM1      87       IM1      H4       HDR5A    0.150000       1.00800           0   0.00000       0.00000    
      7806 IM1      87       IM1      C3       CD2R5A    2.22510       11.6110           0  -1.37800       1.30000    
      7807 IM1      87       IM1      DC3      DRUD     -2.03710      0.400000           0   0.00000       0.00000    
      7808 IM1      87       IM1      H5       HDR5A    0.530000E-01   1.00800           0   0.00000       0.00000    
      7809 IM1      87       IM1      C4       CD2R5B    1.73480       11.6110           0 -0.868000       1.30000    
      7810 IM1      87       IM1      DC4      DRUD     -1.61680      0.400000           0   0.00000       0.00000    
      7811 IM1      87       IM1      H6       HDR5B    0.730000E-01   1.00800           0   0.00000       0.00000    
      7812 IM1      87       IM1      N2       ND2R5B    1.59050       13.6070           0 -0.840000       1.00000    
      7813 IM1      87       IM1      DN2      DRUD     -1.59050      0.400000           0   0.00000       0.00000    
      7814 IM1      87       IM1      H7       DUMH      0.00000       1.00800           0   0.00000       0.00000    
      7815 IM1      87       IM1      LPN21    LPD     -0.474000       0.00000          -1   0.00000       0.00000    
      7816 IM1      88       IM1      C1       CD33G     1.64330       11.6110           0  -1.08100       1.00000    
      7817 IM1      88       IM1      DC1      DRUD     -1.80430      0.400000           0   0.00000       0.00000    
      7818 IM1      88       IM1      H1       HDA3A    0.940000E-01   1.00800           0   0.00000       0.00000    
      7819 IM1      88       IM1      H2       HDA3A    0.940000E-01   1.00800           0   0.00000       0.00000    
      7820 IM1      88       IM1      H3       HDA3A    0.940000E-01   1.00800           0   0.00000       0.00000    
      7821 IM1      88       IM1      N1       ND2R5A    1.92920       13.6070           0  -1.06300       1.30000    
      7822 IM1      88       IM1      DN1      DRUD     -1.78920      0.400000           0   0.00000       0.00000    
      7823 IM1      88       IM1      C2       CD2R5A    1.66810       11.6110           0  -1.37800       1.30000    
      7824 IM1      88       IM1      DC2      DRUD     -2.03710      0.400000           0   0.00000       0.00000    
      7825 IM1      88       IM1      H4       HDR5A    0.150000       1.00800           0   0.00000       0.00000    
      7826 IM1      88       IM1      C3       CD2R5A    2.22510       11.6110           0  -1.37800       1.30000    
      7827 IM1      88       IM1      DC3      DRUD     -2.03710      0.400000           0   0.00000       0.00000    
      7828 IM1      88       IM1      H5       HDR5A    0.530000E-01   1.00800           0   0.00000       0.00000    
      7829 IM1      88       IM1      C4       CD2R5B    1.73480       11.6110           0 -0.868000       1.30000    
      7830 IM1      88       IM1      DC4      DRUD     -1.61680      0.400000           0   0.00000       0.00000    
      7831 IM1      88       IM1      H6       HDR5B    0.730000E-01   1.00800           0   0.00000       0.00000    
      7832 IM1      88       IM1      N2       ND2R5B    1.59050       13.6070           0 -0.840000       1.00000    
      7833 IM1      88       IM1      DN2      DRUD     -1.59050      0.400000           0   0.00000       0.00000    
      7834 IM1      88       IM1      H7       DUMH      0.00000       1.00800           0   0.00000       0.00000    
      7835 IM1      88       IM1      LPN21    LPD     -0.474000       0.00000          -1   0.00000       0.00000    
      7836 IM1      89       IM1      C1       CD33G     1.64330       11.6110           0  -1.08100       1.00000    
      7837 IM1      89       IM1      DC1      DRUD     -1.80430      0.400000           0   0.00000       0.00000    
      7838 IM1      89       IM1      H1       HDA3A    0.940000E-01   1.00800           0   0.00000       0.00000    
      7839 IM1      89       IM1      H2       HDA3A    0.940000E-01   1.00800           0   0.00000       0.00000    
      7840 IM1      89       IM1      H3       HDA3A    0.940000E-01   1.00800           0   0.00000       0.00000    
      7841 IM1      89       IM1      N1       ND2R5A    1.92920       13.6070           0  -1.06300       1.30000    
      7842 IM1      89       IM1      DN1      DRUD     -1.78920      0.400000           0   0.00000       0.00000    
      7843 IM1      89       IM1      C2       CD2R5A    1.66810       11.6110           0  -1.37800       1.30000    
      7844 IM1      89       IM1      DC2      DRUD     -2.03710      0.400000           0   0.00000       0.00000    
      7845 IM1      89       IM1      H4       HDR5A    0.150000       1.00800           0   0.00000       0.00000    
      7846 IM1      89       IM1      C3       CD2R5A    2.22510       11.6110           0  -1.37800       1.30000    
      7847 IM1      89       IM1      DC3      DRUD     -2.03710      0.400000           0   0.00000       0.00000    
      7848 IM1      89       IM1      H5       HDR5A    0.530000E-01   1.00800           0   0.00000       0.00000    
      7849 IM1      89       IM1      C4       CD2R5B    1.73480       11.6110           0 -0.868000       1.30000    
      7850 IM1      89       IM1      DC4      DRUD     -1.61680      0.400000           0   0.00000       0.00000    
      7851 IM1      89       IM1      H6       HDR5B    0.730000E-01   1.00800           0   0.00000       0.00000    
      7852 IM1      89       IM1      N2       ND2R5B    1.59050       13.6070           0 -0.840000       1.00000    
      7853 IM1      89       IM1      DN2      DRUD     -1.59050      0.400000           0   0.00000       0.00000    
      7854 IM1      89       IM1      H7       DUMH      0.00000       1.00800           0   0.00000       0.00000    
      7855 IM1      89       IM1      LPN21    LPD     -0.474000       0.00000          -1   0.00000       0.00000    
      7856 IM1      90       IM1      C1       CD33G     1.64330       11.6110           0  -1.08100       1.00000    
      7857 IM1      90       IM1      DC1      DRUD     -1.80430      0.400000           0   0.00000       0.00000    
      7858 IM1      90       IM1      H1       HDA3A    0.940000E-01   1.00800           0   0.00000       0.00000    
      7859 IM1      90       IM1      H2       HDA3A    0.940000E-01   1.00800           0   0.00000       0.00000    
      7860 IM1      90       IM1      H3       HDA3A    0.940000E-01   1.00800           0   0.00000       0.00000    
      7861 IM1      90       IM1      N1       ND2R5A    1.92920       13.6070           0  -1.06300       1.30000    
      7862 IM1      90       IM1      DN1      DRUD     -1.78920      0.400000           0   0.00000       0.00000    
      7863 IM1      90       IM1      C2       CD2R5A    1.66810       11.6110           0  -1.37800       1.30000    
      7864 IM1      90       IM1      DC2      DRUD     -2.03710      0.400000           0   0.00000       0.00000    
      7865 IM1      90       IM1      H4       HDR5A    0.150000       1.00800           0   0.00000       0.00000    
      7866 IM1      90       IM1      C3       CD2R5A    2.22510       11.6110           0  -1.37800       1.30000    
      7867 IM1      90       IM1      DC3      DRUD     -2.03710      0.400000           0   0.00000       0.00000    
      7868 IM1      90       IM1      H5       HDR5A    0.530000E-01   1.00800           0   0.00000       0.00000    
      7869 IM1      90       IM1      C4       CD2R5B    1.73480       11.6110           0 -0.868000       1.30000    
      7870 IM1      90       IM1      DC4      DRUD     -1.61680      0.400000           0   0.00000       0.00000    
      7871 IM1      90       IM1      H6       HDR5B    0.730000E-01   1.00800           0   0.00000       0.00000    
      7872 IM1      90       IM1      N2       ND2R5B    1.59050       13.6070           0 -0.840000       1.00000    
      7873 IM1      90       IM1      DN2      DRUD     -1.59050      0.400000           0   0.00000       0.00000    
      7874 IM1      90       IM1      H7       DUMH      0.00000       1.00800           0   0.00000       0.00000    
      7875 IM1      90       IM1      LPN21    LPD     -0.474000       0.00000          -1   0.00000       0.00000    
      7876 IM1      91       IM1      C1       CD33G     1.64330       11.6110           0  -1.08100       1.00000    
      7877 IM1      91       IM1      DC1      DRUD     -1.80430      0.400000           0   0.00000       0.00000    
      7878 IM1      91       IM1      H1       HDA3A    0.940000E-01   1.00800           0   0.00000       0.00000    
      7879 IM1      91       IM1      H2       HDA3A    0.940000E-01   1.00800           0   0.00000       0.00000    
      7880 IM1      91       IM1      H3       HDA3A    0.940000E-01   1.00800           0   0.00000       0.00000    
      7881 IM1      91       IM1      N1       ND2R5A    1.92920       13.6070           0  -1.06300       1.30000    
      7882 IM1      91       IM1      DN1      DRUD     -1.78920      0.400000           0   0.00000       0.00000    
      7883 IM1      91       IM1      C2       CD2R5A    1.66810       11.6110           0  -1.37800       1.30000    
      7884 IM1      91       IM1      DC2      DRUD     -2.03710      0.400000           0   0.00000       0.00000    
      7885 IM1      91       IM1      H4       HDR5A    0.150000       1.00800           0   0.00000       0.00000    
      7886 IM1      91       IM1      C3       CD2R5A    2.22510       11.6110           0  -1.37800       1.30000    
      7887 IM1      91       IM1      DC3      DRUD     -2.03710      0.400000           0   0.00000       0.00000    
      7888 IM1      91       IM1      H5       HDR5A    0.530000E-01   1.00800           0   0.00000       0.00000    
      7889 IM1      91       IM1      C4       CD2R5B    1.73480       11.6110           0 -0.868000       1.30000    
      7890 IM1      91       IM1      DC4      DRUD     -1.61680      0.400000           0   0.00000       0.00000    
      7891 IM1      91       IM1      H6       HDR5B    0.730000E-01   1.00800           0   0.00000       0.00000    
      7892 IM1      91       IM1      N2       ND2R5B    1.59050       13.6070           0 -0.840000       1.00000    
      7893 IM1      91       IM1      DN2      DRUD     -1.59050      0.400000           0   0.00000       0.00000    
      7894 IM1      91       IM1      H7       DUMH      0.00000       1.00800           0   0.00000       0.00000    
      7895 IM1      91       IM1      LPN21    LPD     -0.474000       0.00000          -1   0.00000       0.00000    
      7896 IM1      92       IM1      C1       CD33G     1.64330       11.6110           0  -1.08100       1.00000    
      7897 IM1      92       IM1      DC1      DRUD     -1.80430      0.400000           0   0.00000       0.00000    
      7898 IM1      92       IM1      H1       HDA3A    0.940000E-01   1.00800           0   0.00000       0.00000    
      7899 IM1      92       IM1      H2       HDA3A    0.940000E-01   1.00800           0   0.00000       0.00000    
      7900 IM1      92       IM1      H3       HDA3A    0.940000E-01   1.00800           0   0.00000       0.00000    
      7901 IM1      92       IM1      N1       ND2R5A    1.92920       13.6070           0  -1.06300       1.30000    
      7902 IM1      92       IM1      DN1      DRUD     -1.78920      0.400000           0   0.00000       0.00000    
      7903 IM1      92       IM1      C2       CD2R5A    1.66810       11.6110           0  -1.37800       1.30000    
      7904 IM1      92       IM1      DC2      DRUD     -2.03710      0.400000           0   0.00000       0.00000    
      7905 IM1      92       IM1      H4       HDR5A    0.150000       1.00800           0   0.00000       0.00000    
      7906 IM1      92       IM1      C3       CD2R5A    2.22510       11.6110           0  -1.37800       1.30000    
      7907 IM1      92       IM1      DC3      DRUD     -2.03710      0.400000           0   0.00000       0.00000    
      7908 IM1      92       IM1      H5       HDR5A    0.530000E-01   1.00800           0   0.00000       0.00000    
      7909 IM1      92       IM1      C4       CD2R5B    1.73480       11.6110           0 -0.868000       1.30000    
      7910 IM1      92       IM1      DC4      DRUD     -1.61680      0.400000           0   0.00000       0.00000    
      7911 IM1      92       IM1      H6       HDR5B    0.730000E-01   1.00800           0   0.00000       0.00000    
      7912 IM1      92       IM1      N2       ND2R5B    1.59050       13.6070           0 -0.840000       1.00000    
      7913 IM1      92       IM1      DN2      DRUD     -1.59050      0.400000           0   0.00000       0.00000    
      7914 IM1      92       IM1      H7       DUMH      0.00000       1.00800           0   0.00000       0.00000    
      7915 IM1      92       IM1      LPN21    LPD     -0.474000       0.00000          -1   0.00000       0.00000    
      7916 IM1      93       IM1      C1       CD33G     1.64330       11.6110           0  -1.08100       1.00000    
      7917 IM1      93       IM1      DC1      DRUD     -1.80430      0.400000           0   0.00000       0.00000    
      7918 IM1      93       IM1      H1       HDA3A    0.940000E-01   1.00800           0   0.00000       0.00000    
      7919 IM1      93       IM1      H2       HDA3A    0.940000E-01   1.00800           0   0.00000       0.00000    
      7920 IM1      93       IM1      H3       HDA3A    0.940000E-01   1.00800           0   0.00000       0.00000    
      7921 IM1      93       IM1      N1       ND2R5A    1.92920       13.6070           0  -1.06300       1.30000    
      7922 IM1      93       IM1      DN1      DRUD     -1.78920      0.400000           0   0.00000       0.00000    
      7923 IM1      93       IM1      C2       CD2R5A    1.66810       11.6110           0  -1.37800       1.30000    
      7924 IM1      93       IM1      DC2      DRUD     -2.03710      0.400000           0   0.00000       0.00000    
      7925 IM1      93       IM1      H4       HDR5A    0.150000       1.00800           0   0.00000       0.00000    
      7926 IM1      93       IM1      C3       CD2R5A    2.22510       11.6110           0  -1.37800       1.30000    
      7927 IM1      93       IM1      DC3      DRUD     -2.03710      0.400000           0   0.00000       0.00000    
      7928 IM1      93       IM1      H5       HDR5A    0.530000E-01   1.00800           0   0.00000       0.00000    
      7929 IM1      93       IM1      C4       CD2R5B    1.73480       11.6110           0 -0.868000       1.30000    
      7930 IM1      93       IM1      DC4      DRUD     -1.61680      0.400000           0   0.00000       0.00000    
      7931 IM1      93       IM1      H6       HDR5B    0.730000E-01   1.00800           0   0.00000       0.00000    
      7932 IM1      93       IM1      N2       ND2R5B    1.59050       13.6070           0 -0.840000       1.00000    
      7933 IM1      93       IM1      DN2      DRUD     -1.59050      0.400000           0   0.00000       0.00000    
      7934 IM1      93       IM1      H7       DUMH      0.00000       1.00800           0   0.00000       0.00000    
      7935 IM1      93       IM1      LPN21    LPD     -0.474000       0.00000          -1   0.00000       0.00000    
      7936 IM1      94       IM1      C1       CD33G     1.64330       11.6110           0  -1.08100       1.00000    
      7937 IM1      94       IM1      DC1      DRUD     -1.80430      0.400000           0   0.00000       0.00000    
      7938 IM1      94       IM1      H1       HDA3A    0.940000E-01   1.00800           0   0.00000       0.00000    
      7939 IM1      94       IM1      H2       HDA3A    0.940000E-01   1.00800           0   0.00000       0.00000    
      7940 IM1      94       IM1      H3       HDA3A    0.940000E-01   1.00800           0   0.00000       0.00000    
      7941 IM1      94       IM1      N1       ND2R5A    1.92920       13.6070           0  -1.06300       1.30000    
      7942 IM1      94       IM1      DN1      DRUD     -1.78920      0.400000           0   0.00000       0.00000    
      7943 IM1      94       IM1      C2       CD2R5A    1.66810       11.6110           0  -1.37800       1.30000    
      7944 IM1      94       IM1      DC2      DRUD     -2.03710      0.400000           0   0.00000       0.00000    
      7945 IM1      94       IM1      H4       HDR5A    0.150000       1.00800           0   0.00000       0.00000    
      7946 IM1      94       IM1      C3       CD2R5A    2.22510       11.6110           0  -1.37800       1.30000    
      7947 IM1      94       IM1      DC3      DRUD     -2.03710      0.400000           0   0.00000       0.00000    
      7948 IM1      94       IM1      H5       HDR5A    0.530000E-01   1.00800           0   0.00000       0.00000    
      7949 IM1      94       IM1      C4       CD2R5B    1.73480       11.6110           0 -0.868000       1.30000    
      7950 IM1      94       IM1      DC4      DRUD     -1.61680      0.400000           0   0.00000       0.00000    
      7951 IM1      94       IM1      H6       HDR5B    0.730000E-01   1.00800           0   0.00000       0.00000    
      7952 IM1      94       IM1      N2       ND2R5B    1.59050       13.6070           0 -0.840000       1.00000    
      7953 IM1      94       IM1      DN2      DRUD     -1.59050      0.400000           0   0.00000       0.00000    
      7954 IM1      94       IM1      H7       DUMH      0.00000       1.00800           0   0.00000       0.00000    
      7955 IM1      94       IM1      LPN21    LPD     -0.474000       0.00000          -1   0.00000       0.00000    
      7956 IM1      95       IM1      C1       CD33G     1.64330       11.6110           0  -1.08100       1.00000    
      7957 IM1      95       IM1      DC1      DRUD     -1.80430      0.400000           0   0.00000       0.00000    
      7958 IM1      95       IM1      H1       HDA3A    0.940000E-01   1.00800           0   0.00000       0.00000    
      7959 IM1      95       IM1      H2       HDA3A    0.940000E-01   1.00800           0   0.00000       0.00000    
      7960 IM1      95       IM1      H3       HDA3A    0.940000E-01   1.00800           0   0.00000       0.00000    
      7961 IM1      95       IM1      N1       ND2R5A    1.92920       13.6070           0  -1.06300       1.30000    
      7962 IM1      95       IM1      DN1      DRUD     -1.78920      0.400000           0   0.00000       0.00000    
      7963 IM1      95       IM1      C2       CD2R5A    1.66810       11.6110           0  -1.37800       1.30000    
      7964 IM1      95       IM1      DC2      DRUD     -2.03710      0.400000           0   0.00000       0.00000    
      7965 IM1      95       IM1      H4       HDR5A    0.150000       1.00800           0   0.00000       0.00000    
      7966 IM1      95       IM1      C3       CD2R5A    2.22510       11.6110           0  -1.37800       1.30000    
      7967 IM1      95       IM1      DC3      DRUD     -2.03710      0.400000           0   0.00000       0.00000    
      7968 IM1      95       IM1      H5       HDR5A    0.530000E-01   1.00800           0   0.00000       0.00000    
      7969 IM1      95       IM1      C4       CD2R5B    1.73480       11.6110           0 -0.868000       1.30000    
      7970 IM1      95       IM1      DC4      DRUD     -1.61680      0.400000           0   0.00000       0.00000    
      7971 IM1      95       IM1      H6       HDR5B    0.730000E-01   1.00800           0   0.00000       0.00000    
      7972 IM1      95       IM1      N2       ND2R5B    1.59050       13.6070           0 -0.840000       1.00000    
      7973 IM1      95       IM1      DN2      DRUD     -1.59050      0.400000           0   0.00000       0.00000    
      7974 IM1      95       IM1      H7       DUMH      0.00000       1.00800           0   0.00000       0.00000    
      7975 IM1      95       IM1      LPN21    LPD     -0.474000       0.00000          -1   0.00000       0.00000    
      7976 IM1      96       IM1      C1       CD33G     1.64330       11.6110           0  -1.08100       1.00000    
      7977 IM1      96       IM1      DC1      DRUD     -1.80430      0.400000           0   0.00000       0.00000    
      7978 IM1      96       IM1      H1       HDA3A    0.940000E-01   1.00800           0   0.00000       0.00000    
      7979 IM1      96       IM1      H2       HDA3A    0.940000E-01   1.00800           0   0.00000       0.00000    
      7980 IM1      96       IM1      H3       HDA3A    0.940000E-01   1.00800           0   0.00000       0.00000    
      7981 IM1      96       IM1      N1       ND2R5A    1.92920       13.6070           0  -1.06300       1.30000    
      7982 IM1      96       IM1      DN1      DRUD     -1.78920      0.400000           0   0.00000       0.00000    
      7983 IM1      96       IM1      C2       CD2R5A    1.66810       11.6110           0  -1.37800       1.30000    
      7984 IM1      96       IM1      DC2      DRUD     -2.03710      0.400000           0   0.00000       0.00000    
      7985 IM1      96       IM1      H4       HDR5A    0.150000       1.00800           0   0.00000       0.00000    
      7986 IM1      96       IM1      C3       CD2R5A    2.22510       11.6110           0  -1.37800       1.30000    
      7987 IM1      96       IM1      DC3      DRUD     -2.03710      0.400000           0   0.00000       0.00000    
      7988 IM1      96       IM1      H5       HDR5A    0.530000E-01   1.00800           0   0.00000       0.00000    
      7989 IM1      96       IM1      C4       CD2R5B    1.73480       11.6110           0 -0.868000       1.30000    
      7990 IM1      96       IM1      DC4      DRUD     -1.61680      0.400000           0   0.00000       0.00000    
      7991 IM1      96       IM1      H6       HDR5B    0.730000E-01   1.00800           0   0.00000       0.00000    
      7992 IM1      96       IM1      N2       ND2R5B    1.59050       13.6070           0 -0.840000       1.00000    
      7993 IM1      96       IM1      DN2      DRUD     -1.59050      0.400000           0   0.00000       0.00000    
      7994 IM1      96       IM1      H7       DUMH      0.00000       1.00800           0   0.00000       0.00000    
      7995 IM1      96       IM1      LPN21    LPD     -0.474000       0.00000          -1   0.00000       0.00000    
      7996 IM1      97       IM1      C1       CD33G     1.64330       11.6110           0  -1.08100       1.00000    
      7997 IM1      97       IM1      DC1      DRUD     -1.80430      0.400000           0   0.00000       0.00000    
      7998 IM1      97       IM1      H1       HDA3A    0.940000E-01   1.00800           0   0.00000       0.00000    
      7999 IM1      97       IM1      H2       HDA3A    0.940000E-01   1.00800           0   0.00000       0.00000    
      8000 IM1      97       IM1      H3       HDA3A    0.940000E-01   1.00800           0   0.00000       0.00000    
      8001 IM1      97       IM1      N1       ND2R5A    1.92920       13.6070           0  -1.06300       1.30000    
      8002 IM1      97       IM1      DN1      DRUD     -1.78920      0.400000           0   0.00000       0.00000    
      8003 IM1      97       IM1      C2       CD2R5A    1.66810       11.6110           0  -1.37800       1.30000    
      8004 IM1      97       IM1      DC2      DRUD     -2.03710      0.400000           0   0.00000       0.00000    
      8005 IM1      97       IM1      H4       HDR5A    0.150000       1.00800           0   0.00000       0.00000    
      8006 IM1      97       IM1      C3       CD2R5A    2.22510       11.6110           0  -1.37800       1.30000    
      8007 IM1      97       IM1      DC3      DRUD     -2.03710      0.400000           0   0.00000       0.00000    
      8008 IM1      97       IM1      H5       HDR5A    0.530000E-01   1.00800           0   0.00000       0.00000    
      8009 IM1      97       IM1      C4       CD2R5B    1.73480       11.6110           0 -0.868000       1.30000    
      8010 IM1      97       IM1      DC4      DRUD     -1.61680      0.400000           0   0.00000       0.00000    
      8011 IM1      97       IM1      H6       HDR5B    0.730000E-01   1.00800           0   0.00000       0.00000    
      8012 IM1      97       IM1      N2       ND2R5B    1.59050       13.6070           0 -0.840000       1.00000    
      8013 IM1      97       IM1      DN2      DRUD     -1.59050      0.400000           0   0.00000       0.00000    
      8014 IM1      97       IM1      H7       DUMH      0.00000       1.00800           0   0.00000       0.00000    
      8015 IM1      97       IM1      LPN21    LPD     -0.474000       0.00000          -1   0.00000       0.00000    
      8016 IM1      98       IM1      C1       CD33G     1.64330       11.6110           0  -1.08100       1.00000    
      8017 IM1      98       IM1      DC1      DRUD     -1.80430      0.400000           0   0.00000       0.00000    
      8018 IM1      98       IM1      H1       HDA3A    0.940000E-01   1.00800           0   0.00000       0.00000    
      8019 IM1      98       IM1      H2       HDA3A    0.940000E-01   1.00800           0   0.00000       0.00000    
      8020 IM1      98       IM1      H3       HDA3A    0.940000E-01   1.00800           0   0.00000       0.00000    
      8021 IM1      98       IM1      N1       ND2R5A    1.92920       13.6070           0  -1.06300       1.30000    
      8022 IM1      98       IM1      DN1      DRUD     -1.78920      0.400000           0   0.00000       0.00000    
      8023 IM1      98       IM1      C2       CD2R5A    1.66810       11.6110           0  -1.37800       1.30000    
      8024 IM1      98       IM1      DC2      DRUD     -2.03710      0.400000           0   0.00000       0.00000    
      8025 IM1      98       IM1      H4       HDR5A    0.150000       1.00800           0   0.00000       0.00000    
      8026 IM1      98       IM1      C3       CD2R5A    2.22510       11.6110           0  -1.37800       1.30000    
      8027 IM1      98       IM1      DC3      DRUD     -2.03710      0.400000           0   0.00000       0.00000    
      8028 IM1      98       IM1      H5       HDR5A    0.530000E-01   1.00800           0   0.00000       0.00000    
      8029 IM1      98       IM1      C4       CD2R5B    1.73480       11.6110           0 -0.868000       1.30000    
      8030 IM1      98       IM1      DC4      DRUD     -1.61680      0.400000           0   0.00000       0.00000    
      8031 IM1      98       IM1      H6       HDR5B    0.730000E-01   1.00800           0   0.00000       0.00000    
      8032 IM1      98       IM1      N2       ND2R5B    1.59050       13.6070           0 -0.840000       1.00000    
      8033 IM1      98       IM1      DN2      DRUD     -1.59050      0.400000           0   0.00000       0.00000    
      8034 IM1      98       IM1      H7       DUMH      0.00000       1.00800           0   0.00000       0.00000    
      8035 IM1      98       IM1      LPN21    LPD     -0.474000       0.00000          -1   0.00000       0.00000    
      8036 IM1      99       IM1      C1       CD33G     1.64330       11.6110           0  -1.08100       1.00000    
      8037 IM1      99       IM1      DC1      DRUD     -1.80430      0.400000           0   0.00000       0.00000    
      8038 IM1      99       IM1      H1       HDA3A    0.940000E-01   1.00800           0   0.00000       0.00000    
      8039 IM1      99       IM1      H2       HDA3A    0.940000E-01   1.00800           0   0.00000       0.00000    
      8040 IM1      99       IM1      H3       HDA3A    0.940000E-01   1.00800           0   0.00000       0.00000    
      8041 IM1      99       IM1      N1       ND2R5A    1.92920       13.6070           0  -1.06300       1.30000    
      8042 IM1      99       IM1      DN1      DRUD     -1.78920      0.400000           0   0.00000       0.00000    
      8043 IM1      99       IM1      C2       CD2R5A    1.66810       11.6110           0  -1.37800       1.30000    
      8044 IM1      99       IM1      DC2      DRUD     -2.03710      0.400000           0   0.00000       0.00000    
      8045 IM1      99       IM1      H4       HDR5A    0.150000       1.00800           0   0.00000       0.00000    
      8046 IM1      99       IM1      C3       CD2R5A    2.22510       11.6110           0  -1.37800       1.30000    
      8047 IM1      99       IM1      DC3      DRUD     -2.03710      0.400000           0   0.00000       0.00000    
      8048 IM1      99       IM1      H5       HDR5A    0.530000E-01   1.00800           0   0.00000       0.00000    
      8049 IM1      99       IM1      C4       CD2R5B    1.73480       11.6110           0 -0.868000       1.30000    
      8050 IM1      99       IM1      DC4      DRUD     -1.61680      0.400000           0   0.00000       0.00000    
      8051 IM1      99       IM1      H6       HDR5B    0.730000E-01   1.00800           0   0.00000       0.00000    
      8052 IM1      99       IM1      N2       ND2R5B    1.59050       13.6070           0 -0.840000       1.00000    
      8053 IM1      99       IM1      DN2      DRUD     -1.59050      0.400000           0   0.00000       0.00000    
      8054 IM1      99       IM1      H7       DUMH      0.00000       1.00800           0   0.00000       0.00000    
      8055 IM1      99       IM1      LPN21    LPD     -0.474000       0.00000          -1   0.00000       0.00000    
      8056 IM1      100      IM1      C1       CD33G     1.64330       11.6110           0  -1.08100       1.00000    
      8057 IM1      100      IM1      DC1      DRUD     -1.80430      0.400000           0   0.00000       0.00000    
      8058 IM1      100      IM1      H1       HDA3A    0.940000E-01   1.00800           0   0.00000       0.00000    
      8059 IM1      100      IM1      H2       HDA3A    0.940000E-01   1.00800           0   0.00000       0.00000    
      8060 IM1      100      IM1      H3       HDA3A    0.940000E-01   1.00800           0   0.00000       0.00000    
      8061 IM1      100      IM1      N1       ND2R5A    1.92920       13.6070           0  -1.06300       1.30000    
      8062 IM1      100      IM1      DN1      DRUD     -1.78920      0.400000           0   0.00000       0.00000    
      8063 IM1      100      IM1      C2       CD2R5A    1.66810       11.6110           0  -1.37800       1.30000    
      8064 IM1      100      IM1      DC2      DRUD     -2.03710      0.400000           0   0.00000       0.00000    
      8065 IM1      100      IM1      H4       HDR5A    0.150000       1.00800           0   0.00000       0.00000    
      8066 IM1      100      IM1      C3       CD2R5A    2.22510       11.6110           0  -1.37800       1.30000    
      8067 IM1      100      IM1      DC3      DRUD     -2.03710      0.400000           0   0.00000       0.00000    
      8068 IM1      100      IM1      H5       HDR5A    0.530000E-01   1.00800           0   0.00000       0.00000    
      8069 IM1      100      IM1      C4       CD2R5B    1.73480       11.6110           0 -0.868000       1.30000    
      8070 IM1      100      IM1      DC4      DRUD     -1.61680      0.400000           0   0.00000       0.00000    
      8071 IM1      100      IM1      H6       HDR5B    0.730000E-01   1.00800           0   0.00000       0.00000    
      8072 IM1      100      IM1      N2       ND2R5B    1.59050       13.6070           0 -0.840000       1.00000    
      8073 IM1      100      IM1      DN2      DRUD     -1.59050      0.400000           0   0.00000       0.00000    
      8074 IM1      100      IM1      H7       DUMH      0.00000       1.00800           0   0.00000       0.00000    
      8075 IM1      100      IM1      LPN21    LPD     -0.474000       0.00000          -1   0.00000       0.00000    
      8076 IM1      101      IM1      C1       CD33G     1.64330       11.6110           0  -1.08100       1.00000    
      8077 IM1      101      IM1      DC1      DRUD     -1.80430      0.400000           0   0.00000       0.00000    
      8078 IM1      101      IM1      H1       HDA3A    0.940000E-01   1.00800           0   0.00000       0.00000    
      8079 IM1      101      IM1      H2       HDA3A    0.940000E-01   1.00800           0   0.00000       0.00000    
      8080 IM1      101      IM1      H3       HDA3A    0.940000E-01   1.00800           0   0.00000       0.00000    
      8081 IM1      101      IM1      N1       ND2R5A    1.92920       13.6070           0  -1.06300       1.30000    
      8082 IM1      101      IM1      DN1      DRUD     -1.78920      0.400000           0   0.00000       0.00000    
      8083 IM1      101      IM1      C2       CD2R5A    1.66810       11.6110           0  -1.37800       1.30000    
      8084 IM1      101      IM1      DC2      DRUD     -2.03710      0.400000           0   0.00000       0.00000    
      8085 IM1      101      IM1      H4       HDR5A    0.150000       1.00800           0   0.00000       0.00000    
      8086 IM1      101      IM1      C3       CD2R5A    2.22510       11.6110           0  -1.37800       1.30000    
      8087 IM1      101      IM1      DC3      DRUD     -2.03710      0.400000           0   0.00000       0.00000    
      8088 IM1      101      IM1      H5       HDR5A    0.530000E-01   1.00800           0   0.00000       0.00000    
      8089 IM1      101      IM1      C4       CD2R5B    1.73480       11.6110           0 -0.868000       1.30000    
      8090 IM1      101      IM1      DC4      DRUD     -1.61680      0.400000           0   0.00000       0.00000    
      8091 IM1      101      IM1      H6       HDR5B    0.730000E-01   1.00800           0   0.00000       0.00000    
      8092 IM1      101      IM1      N2       ND2R5B    1.59050       13.6070           0 -0.840000       1.00000    
      8093 IM1      101      IM1      DN2      DRUD     -1.59050      0.400000           0   0.00000       0.00000    
      8094 IM1      101      IM1      H7       DUMH      0.00000       1.00800           0   0.00000       0.00000    
      8095 IM1      101      IM1      LPN21    LPD     -0.474000       0.00000          -1   0.00000       0.00000    
      8096 IM1      102      IM1      C1       CD33G     1.64330       11.6110           0  -1.08100       1.00000    
      8097 IM1      102      IM1      DC1      DRUD     -1.80430      0.400000           0   0.00000       0.00000    
      8098 IM1      102      IM1      H1       HDA3A    0.940000E-01   1.00800           0   0.00000       0.00000    
      8099 IM1      102      IM1      H2       HDA3A    0.940000E-01   1.00800           0   0.00000       0.00000    
      8100 IM1      102      IM1      H3       HDA3A    0.940000E-01   1.00800           0   0.00000       0.00000    
      8101 IM1      102      IM1      N1       ND2R5A    1.92920       13.6070           0  -1.06300       1.30000    
      8102 IM1      102      IM1      DN1      DRUD     -1.78920      0.400000           0   0.00000       0.00000    
      8103 IM1      102      IM1      C2       CD2R5A    1.66810       11.6110           0  -1.37800       1.30000    
      8104 IM1      102      IM1      DC2      DRUD     -2.03710      0.400000           0   0.00000       0.00000    
      8105 IM1      102      IM1      H4       HDR5A    0.150000       1.00800           0   0.00000       0.00000    
      8106 IM1      102      IM1      C3       CD2R5A    2.22510       11.6110           0  -1.37800       1.30000    
      8107 IM1      102      IM1      DC3      DRUD     -2.03710      0.400000           0   0.00000       0.00000    
      8108 IM1      102      IM1      H5       HDR5A    0.530000E-01   1.00800           0   0.00000       0.00000    
      8109 IM1      102      IM1      C4       CD2R5B    1.73480       11.6110           0 -0.868000       1.30000    
      8110 IM1      102      IM1      DC4      DRUD     -1.61680      0.400000           0   0.00000       0.00000    
      8111 IM1      102      IM1      H6       HDR5B    0.730000E-01   1.00800           0   0.00000       0.00000    
      8112 IM1      102      IM1      N2       ND2R5B    1.59050       13.6070           0 -0.840000       1.00000    
      8113 IM1      102      IM1      DN2      DRUD     -1.59050      0.400000           0   0.00000       0.00000    
      8114 IM1      102      IM1      H7       DUMH      0.00000       1.00800           0   0.00000       0.00000    
      8115 IM1      102      IM1      LPN21    LPD     -0.474000       0.00000          -1   0.00000       0.00000    
      8116 IM1      103      IM1      C1       CD33G     1.64330       11.6110           0  -1.08100       1.00000    
      8117 IM1      103      IM1      DC1      DRUD     -1.80430      0.400000           0   0.00000       0.00000    
      8118 IM1      103      IM1      H1       HDA3A    0.940000E-01   1.00800           0   0.00000       0.00000    
      8119 IM1      103      IM1      H2       HDA3A    0.940000E-01   1.00800           0   0.00000       0.00000    
      8120 IM1      103      IM1      H3       HDA3A    0.940000E-01   1.00800           0   0.00000       0.00000    
      8121 IM1      103      IM1      N1       ND2R5A    1.92920       13.6070           0  -1.06300       1.30000    
      8122 IM1      103      IM1      DN1      DRUD     -1.78920      0.400000           0   0.00000       0.00000    
      8123 IM1      103      IM1      C2       CD2R5A    1.66810       11.6110           0  -1.37800       1.30000    
      8124 IM1      103      IM1      DC2      DRUD     -2.03710      0.400000           0   0.00000       0.00000    
      8125 IM1      103      IM1      H4       HDR5A    0.150000       1.00800           0   0.00000       0.00000    
      8126 IM1      103      IM1      C3       CD2R5A    2.22510       11.6110           0  -1.37800       1.30000    
      8127 IM1      103      IM1      DC3      DRUD     -2.03710      0.400000           0   0.00000       0.00000    
      8128 IM1      103      IM1      H5       HDR5A    0.530000E-01   1.00800           0   0.00000       0.00000    
      8129 IM1      103      IM1      C4       CD2R5B    1.73480       11.6110           0 -0.868000       1.30000    
      8130 IM1      103      IM1      DC4      DRUD     -1.61680      0.400000           0   0.00000       0.00000    
      8131 IM1      103      IM1      H6       HDR5B    0.730000E-01   1.00800           0   0.00000       0.00000    
      8132 IM1      103      IM1      N2       ND2R5B    1.59050       13.6070           0 -0.840000       1.00000    
      8133 IM1      103      IM1      DN2      DRUD     -1.59050      0.400000           0   0.00000       0.00000    
      8134 IM1      103      IM1      H7       DUMH      0.00000       1.00800           0   0.00000       0.00000    
      8135 IM1      103      IM1      LPN21    LPD     -0.474000       0.00000          -1   0.00000       0.00000    
      8136 IM1      104      IM1      C1       CD33G     1.64330       11.6110           0  -1.08100       1.00000    
      8137 IM1      104      IM1      DC1      DRUD     -1.80430      0.400000           0   0.00000       0.00000    
      8138 IM1      104      IM1      H1       HDA3A    0.940000E-01   1.00800           0   0.00000       0.00000    
      8139 IM1      104      IM1      H2       HDA3A    0.940000E-01   1.00800           0   0.00000       0.00000    
      8140 IM1      104      IM1      H3       HDA3A    0.940000E-01   1.00800           0   0.00000       0.00000    
      8141 IM1      104      IM1      N1       ND2R5A    1.92920       13.6070           0  -1.06300       1.30000    
      8142 IM1      104      IM1      DN1      DRUD     -1.78920      0.400000           0   0.00000       0.00000    
      8143 IM1      104      IM1      C2       CD2R5A    1.66810       11.6110           0  -1.37800       1.30000    
      8144 IM1      104      IM1      DC2      DRUD     -2.03710      0.400000           0   0.00000       0.00000    
      8145 IM1      104      IM1      H4       HDR5A    0.150000       1.00800           0   0.00000       0.00000    
      8146 IM1      104      IM1      C3       CD2R5A    2.22510       11.6110           0  -1.37800       1.30000    
      8147 IM1      104      IM1      DC3      DRUD     -2.03710      0.400000           0   0.00000       0.00000    
      8148 IM1      104      IM1      H5       HDR5A    0.530000E-01   1.00800           0   0.00000       0.00000    
      8149 IM1      104      IM1      C4       CD2R5B    1.73480       11.6110           0 -0.868000       1.30000    
      8150 IM1      104      IM1      DC4      DRUD     -1.61680      0.400000           0   0.00000       0.00000    
      8151 IM1      104      IM1      H6       HDR5B    0.730000E-01   1.00800           0   0.00000       0.00000    
      8152 IM1      104      IM1      N2       ND2R5B    1.59050       13.6070           0 -0.840000       1.00000    
      8153 IM1      104      IM1      DN2      DRUD     -1.59050      0.400000           0   0.00000       0.00000    
      8154 IM1      104      IM1      H7       DUMH      0.00000       1.00800           0   0.00000       0.00000    
      8155 IM1      104      IM1      LPN21    LPD     -0.474000       0.00000          -1   0.00000       0.00000    
      8156 IM1      105      IM1      C1       CD33G     1.64330       11.6110           0  -1.08100       1.00000    
      8157 IM1      105      IM1      DC1      DRUD     -1.80430      0.400000           0   0.00000       0.00000    
      8158 IM1      105      IM1      H1       HDA3A    0.940000E-01   1.00800           0   0.00000       0.00000    
      8159 IM1      105      IM1      H2       HDA3A    0.940000E-01   1.00800           0   0.00000       0.00000    
      8160 IM1      105      IM1      H3       HDA3A    0.940000E-01   1.00800           0   0.00000       0.00000    
      8161 IM1      105      IM1      N1       ND2R5A    1.92920       13.6070           0  -1.06300       1.30000    
      8162 IM1      105      IM1      DN1      DRUD     -1.78920      0.400000           0   0.00000       0.00000    
      8163 IM1      105      IM1      C2       CD2R5A    1.66810       11.6110           0  -1.37800       1.30000    
      8164 IM1      105      IM1      DC2      DRUD     -2.03710      0.400000           0   0.00000       0.00000    
      8165 IM1      105      IM1      H4       HDR5A    0.150000       1.00800           0   0.00000       0.00000    
      8166 IM1      105      IM1      C3       CD2R5A    2.22510       11.6110           0  -1.37800       1.30000    
      8167 IM1      105      IM1      DC3      DRUD     -2.03710      0.400000           0   0.00000       0.00000    
      8168 IM1      105      IM1      H5       HDR5A    0.530000E-01   1.00800           0   0.00000       0.00000    
      8169 IM1      105      IM1      C4       CD2R5B    1.73480       11.6110           0 -0.868000       1.30000    
      8170 IM1      105      IM1      DC4      DRUD     -1.61680      0.400000           0   0.00000       0.00000    
      8171 IM1      105      IM1      H6       HDR5B    0.730000E-01   1.00800           0   0.00000       0.00000    
      8172 IM1      105      IM1      N2       ND2R5B    1.59050       13.6070           0 -0.840000       1.00000    
      8173 IM1      105      IM1      DN2      DRUD     -1.59050      0.400000           0   0.00000       0.00000    
      8174 IM1      105      IM1      H7       DUMH      0.00000       1.00800           0   0.00000       0.00000    
      8175 IM1      105      IM1      LPN21    LPD     -0.474000       0.00000          -1   0.00000       0.00000    
      8176 IM1      106      IM1      C1       CD33G     1.64330       11.6110           0  -1.08100       1.00000    
      8177 IM1      106      IM1      DC1      DRUD     -1.80430      0.400000           0   0.00000       0.00000    
      8178 IM1      106      IM1      H1       HDA3A    0.940000E-01   1.00800           0   0.00000       0.00000    
      8179 IM1      106      IM1      H2       HDA3A    0.940000E-01   1.00800           0   0.00000       0.00000    
      8180 IM1      106      IM1      H3       HDA3A    0.940000E-01   1.00800           0   0.00000       0.00000    
      8181 IM1      106      IM1      N1       ND2R5A    1.92920       13.6070           0  -1.06300       1.30000    
      8182 IM1      106      IM1      DN1      DRUD     -1.78920      0.400000           0   0.00000       0.00000    
      8183 IM1      106      IM1      C2       CD2R5A    1.66810       11.6110           0  -1.37800       1.30000    
      8184 IM1      106      IM1      DC2      DRUD     -2.03710      0.400000           0   0.00000       0.00000    
      8185 IM1      106      IM1      H4       HDR5A    0.150000       1.00800           0   0.00000       0.00000    
      8186 IM1      106      IM1      C3       CD2R5A    2.22510       11.6110           0  -1.37800       1.30000    
      8187 IM1      106      IM1      DC3      DRUD     -2.03710      0.400000           0   0.00000       0.00000    
      8188 IM1      106      IM1      H5       HDR5A    0.530000E-01   1.00800           0   0.00000       0.00000    
      8189 IM1      106      IM1      C4       CD2R5B    1.73480       11.6110           0 -0.868000       1.30000    
      8190 IM1      106      IM1      DC4      DRUD     -1.61680      0.400000           0   0.00000       0.00000    
      8191 IM1      106      IM1      H6       HDR5B    0.730000E-01   1.00800           0   0.00000       0.00000    
      8192 IM1      106      IM1      N2       ND2R5B    1.59050       13.6070           0 -0.840000       1.00000    
      8193 IM1      106      IM1      DN2      DRUD     -1.59050      0.400000           0   0.00000       0.00000    
      8194 IM1      106      IM1      H7       DUMH      0.00000       1.00800           0   0.00000       0.00000    
      8195 IM1      106      IM1      LPN21    LPD     -0.474000       0.00000          -1   0.00000       0.00000    
      8196 IM1      107      IM1      C1       CD33G     1.64330       11.6110           0  -1.08100       1.00000    
      8197 IM1      107      IM1      DC1      DRUD     -1.80430      0.400000           0   0.00000       0.00000    
      8198 IM1      107      IM1      H1       HDA3A    0.940000E-01   1.00800           0   0.00000       0.00000    
      8199 IM1      107      IM1      H2       HDA3A    0.940000E-01   1.00800           0   0.00000       0.00000    
      8200 IM1      107      IM1      H3       HDA3A    0.940000E-01   1.00800           0   0.00000       0.00000    
      8201 IM1      107      IM1      N1       ND2R5A    1.92920       13.6070           0  -1.06300       1.30000    
      8202 IM1      107      IM1      DN1      DRUD     -1.78920      0.400000           0   0.00000       0.00000    
      8203 IM1      107      IM1      C2       CD2R5A    1.66810       11.6110           0  -1.37800       1.30000    
      8204 IM1      107      IM1      DC2      DRUD     -2.03710      0.400000           0   0.00000       0.00000    
      8205 IM1      107      IM1      H4       HDR5A    0.150000       1.00800           0   0.00000       0.00000    
      8206 IM1      107      IM1      C3       CD2R5A    2.22510       11.6110           0  -1.37800       1.30000    
      8207 IM1      107      IM1      DC3      DRUD     -2.03710      0.400000           0   0.00000       0.00000    
      8208 IM1      107      IM1      H5       HDR5A    0.530000E-01   1.00800           0   0.00000       0.00000    
      8209 IM1      107      IM1      C4       CD2R5B    1.73480       11.6110           0 -0.868000       1.30000    
      8210 IM1      107      IM1      DC4      DRUD     -1.61680      0.400000           0   0.00000       0.00000    
      8211 IM1      107      IM1      H6       HDR5B    0.730000E-01   1.00800           0   0.00000       0.00000    
      8212 IM1      107      IM1      N2       ND2R5B    1.59050       13.6070           0 -0.840000       1.00000    
      8213 IM1      107      IM1      DN2      DRUD     -1.59050      0.400000           0   0.00000       0.00000    
      8214 IM1      107      IM1      H7       DUMH      0.00000       1.00800           0   0.00000       0.00000    
      8215 IM1      107      IM1      LPN21    LPD     -0.474000       0.00000          -1   0.00000       0.00000    
      8216 IM1      108      IM1      C1       CD33G     1.64330       11.6110           0  -1.08100       1.00000    
      8217 IM1      108      IM1      DC1      DRUD     -1.80430      0.400000           0   0.00000       0.00000    
      8218 IM1      108      IM1      H1       HDA3A    0.940000E-01   1.00800           0   0.00000       0.00000    
      8219 IM1      108      IM1      H2       HDA3A    0.940000E-01   1.00800           0   0.00000       0.00000    
      8220 IM1      108      IM1      H3       HDA3A    0.940000E-01   1.00800           0   0.00000       0.00000    
      8221 IM1      108      IM1      N1       ND2R5A    1.92920       13.6070           0  -1.06300       1.30000    
      8222 IM1      108      IM1      DN1      DRUD     -1.78920      0.400000           0   0.00000       0.00000    
      8223 IM1      108      IM1      C2       CD2R5A    1.66810       11.6110           0  -1.37800       1.30000    
      8224 IM1      108      IM1      DC2      DRUD     -2.03710      0.400000           0   0.00000       0.00000    
      8225 IM1      108      IM1      H4       HDR5A    0.150000       1.00800           0   0.00000       0.00000    
      8226 IM1      108      IM1      C3       CD2R5A    2.22510       11.6110           0  -1.37800       1.30000    
      8227 IM1      108      IM1      DC3      DRUD     -2.03710      0.400000           0   0.00000       0.00000    
      8228 IM1      108      IM1      H5       HDR5A    0.530000E-01   1.00800           0   0.00000       0.00000    
      8229 IM1      108      IM1      C4       CD2R5B    1.73480       11.6110           0 -0.868000       1.30000    
      8230 IM1      108      IM1      DC4      DRUD     -1.61680      0.400000           0   0.00000       0.00000    
      8231 IM1      108      IM1      H6       HDR5B    0.730000E-01   1.00800           0   0.00000       0.00000    
      8232 IM1      108      IM1      N2       ND2R5B    1.59050       13.6070           0 -0.840000       1.00000    
      8233 IM1      108      IM1      DN2      DRUD     -1.59050      0.400000           0   0.00000       0.00000    
      8234 IM1      108      IM1      H7       DUMH      0.00000       1.00800           0   0.00000       0.00000    
      8235 IM1      108      IM1      LPN21    LPD     -0.474000       0.00000          -1   0.00000       0.00000    
      8236 IM1      109      IM1      C1       CD33G     1.64330       11.6110           0  -1.08100       1.00000    
      8237 IM1      109      IM1      DC1      DRUD     -1.80430      0.400000           0   0.00000       0.00000    
      8238 IM1      109      IM1      H1       HDA3A    0.940000E-01   1.00800           0   0.00000       0.00000    
      8239 IM1      109      IM1      H2       HDA3A    0.940000E-01   1.00800           0   0.00000       0.00000    
      8240 IM1      109      IM1      H3       HDA3A    0.940000E-01   1.00800           0   0.00000       0.00000    
      8241 IM1      109      IM1      N1       ND2R5A    1.92920       13.6070           0  -1.06300       1.30000    
      8242 IM1      109      IM1      DN1      DRUD     -1.78920      0.400000           0   0.00000       0.00000    
      8243 IM1      109      IM1      C2       CD2R5A    1.66810       11.6110           0  -1.37800       1.30000    
      8244 IM1      109      IM1      DC2      DRUD     -2.03710      0.400000           0   0.00000       0.00000    
      8245 IM1      109      IM1      H4       HDR5A    0.150000       1.00800           0   0.00000       0.00000    
      8246 IM1      109      IM1      C3       CD2R5A    2.22510       11.6110           0  -1.37800       1.30000    
      8247 IM1      109      IM1      DC3      DRUD     -2.03710      0.400000           0   0.00000       0.00000    
      8248 IM1      109      IM1      H5       HDR5A    0.530000E-01   1.00800           0   0.00000       0.00000    
      8249 IM1      109      IM1      C4       CD2R5B    1.73480       11.6110           0 -0.868000       1.30000    
      8250 IM1      109      IM1      DC4      DRUD     -1.61680      0.400000           0   0.00000       0.00000    
      8251 IM1      109      IM1      H6       HDR5B    0.730000E-01   1.00800           0   0.00000       0.00000    
      8252 IM1      109      IM1      N2       ND2R5B    1.59050       13.6070           0 -0.840000       1.00000    
      8253 IM1      109      IM1      DN2      DRUD     -1.59050      0.400000           0   0.00000       0.00000    
      8254 IM1      109      IM1      H7       DUMH      0.00000       1.00800           0   0.00000       0.00000    
      8255 IM1      109      IM1      LPN21    LPD     -0.474000       0.00000          -1   0.00000       0.00000    
      8256 IM1      110      IM1      C1       CD33G     1.64330       11.6110           0  -1.08100       1.00000    
      8257 IM1      110      IM1      DC1      DRUD     -1.80430      0.400000           0   0.00000       0.00000    
      8258 IM1      110      IM1      H1       HDA3A    0.940000E-01   1.00800           0   0.00000       0.00000    
      8259 IM1      110      IM1      H2       HDA3A    0.940000E-01   1.00800           0   0.00000       0.00000    
      8260 IM1      110      IM1      H3       HDA3A    0.940000E-01   1.00800           0   0.00000       0.00000    
      8261 IM1      110      IM1      N1       ND2R5A    1.92920       13.6070           0  -1.06300       1.30000    
      8262 IM1      110      IM1      DN1      DRUD     -1.78920      0.400000           0   0.00000       0.00000    
      8263 IM1      110      IM1      C2       CD2R5A    1.66810       11.6110           0  -1.37800       1.30000    
      8264 IM1      110      IM1      DC2      DRUD     -2.03710      0.400000           0   0.00000       0.00000    
      8265 IM1      110      IM1      H4       HDR5A    0.150000       1.00800           0   0.00000       0.00000    
      8266 IM1      110      IM1      C3       CD2R5A    2.22510       11.6110           0  -1.37800       1.30000    
      8267 IM1      110      IM1      DC3      DRUD     -2.03710      0.400000           0   0.00000       0.00000    
      8268 IM1      110      IM1      H5       HDR5A    0.530000E-01   1.00800           0   0.00000       0.00000    
      8269 IM1      110      IM1      C4       CD2R5B    1.73480       11.6110           0 -0.868000       1.30000    
      8270 IM1      110      IM1      DC4      DRUD     -1.61680      0.400000           0   0.00000       0.00000    
      8271 IM1      110      IM1      H6       HDR5B    0.730000E-01   1.00800           0   0.00000       0.00000    
      8272 IM1      110      IM1      N2       ND2R5B    1.59050       13.6070           0 -0.840000       1.00000    
      8273 IM1      110      IM1      DN2      DRUD     -1.59050      0.400000           0   0.00000       0.00000    
      8274 IM1      110      IM1      H7       DUMH      0.00000       1.00800           0   0.00000       0.00000    
      8275 IM1      110      IM1      LPN21    LPD     -0.474000       0.00000          -1   0.00000       0.00000    
      8276 IM1      111      IM1      C1       CD33G     1.64330       11.6110           0  -1.08100       1.00000    
      8277 IM1      111      IM1      DC1      DRUD     -1.80430      0.400000           0   0.00000       0.00000    
      8278 IM1      111      IM1      H1       HDA3A    0.940000E-01   1.00800           0   0.00000       0.00000    
      8279 IM1      111      IM1      H2       HDA3A    0.940000E-01   1.00800           0   0.00000       0.00000    
      8280 IM1      111      IM1      H3       HDA3A    0.940000E-01   1.00800           0   0.00000       0.00000    
      8281 IM1      111      IM1      N1       ND2R5A    1.92920       13.6070           0  -1.06300       1.30000    
      8282 IM1      111      IM1      DN1      DRUD     -1.78920      0.400000           0   0.00000       0.00000    
      8283 IM1      111      IM1      C2       CD2R5A    1.66810       11.6110           0  -1.37800       1.30000    
      8284 IM1      111      IM1      DC2      DRUD     -2.03710      0.400000           0   0.00000       0.00000    
      8285 IM1      111      IM1      H4       HDR5A    0.150000       1.00800           0   0.00000       0.00000    
      8286 IM1      111      IM1      C3       CD2R5A    2.22510       11.6110           0  -1.37800       1.30000    
      8287 IM1      111      IM1      DC3      DRUD     -2.03710      0.400000           0   0.00000       0.00000    
      8288 IM1      111      IM1      H5       HDR5A    0.530000E-01   1.00800           0   0.00000       0.00000    
      8289 IM1      111      IM1      C4       CD2R5B    1.73480       11.6110           0 -0.868000       1.30000    
      8290 IM1      111      IM1      DC4      DRUD     -1.61680      0.400000           0   0.00000       0.00000    
      8291 IM1      111      IM1      H6       HDR5B    0.730000E-01   1.00800           0   0.00000       0.00000    
      8292 IM1      111      IM1      N2       ND2R5B    1.59050       13.6070           0 -0.840000       1.00000    
      8293 IM1      111      IM1      DN2      DRUD     -1.59050      0.400000           0   0.00000       0.00000    
      8294 IM1      111      IM1      H7       DUMH      0.00000       1.00800           0   0.00000       0.00000    
      8295 IM1      111      IM1      LPN21    LPD     -0.474000       0.00000          -1   0.00000       0.00000    
      8296 IM1      112      IM1      C1       CD33G     1.64330       11.6110           0  -1.08100       1.00000    
      8297 IM1      112      IM1      DC1      DRUD     -1.80430      0.400000           0   0.00000       0.00000    
      8298 IM1      112      IM1      H1       HDA3A    0.940000E-01   1.00800           0   0.00000       0.00000    
      8299 IM1      112      IM1      H2       HDA3A    0.940000E-01   1.00800           0   0.00000       0.00000    
      8300 IM1      112      IM1      H3       HDA3A    0.940000E-01   1.00800           0   0.00000       0.00000    
      8301 IM1      112      IM1      N1       ND2R5A    1.92920       13.6070           0  -1.06300       1.30000    
      8302 IM1      112      IM1      DN1      DRUD     -1.78920      0.400000           0   0.00000       0.00000    
      8303 IM1      112      IM1      C2       CD2R5A    1.66810       11.6110           0  -1.37800       1.30000    
      8304 IM1      112      IM1      DC2      DRUD     -2.03710      0.400000           0   0.00000       0.00000    
      8305 IM1      112      IM1      H4       HDR5A    0.150000       1.00800           0   0.00000       0.00000    
      8306 IM1      112      IM1      C3       CD2R5A    2.22510       11.6110           0  -1.37800       1.30000    
      8307 IM1      112      IM1      DC3      DRUD     -2.03710      0.400000           0   0.00000       0.00000    
      8308 IM1      112      IM1      H5       HDR5A    0.530000E-01   1.00800           0   0.00000       0.00000    
      8309 IM1      112      IM1      C4       CD2R5B    1.73480       11.6110           0 -0.868000       1.30000    
      8310 IM1      112      IM1      DC4      DRUD     -1.61680      0.400000           0   0.00000       0.00000    
      8311 IM1      112      IM1      H6       HDR5B    0.730000E-01   1.00800           0   0.00000       0.00000    
      8312 IM1      112      IM1      N2       ND2R5B    1.59050       13.6070           0 -0.840000       1.00000    
      8313 IM1      112      IM1      DN2      DRUD     -1.59050      0.400000           0   0.00000       0.00000    
      8314 IM1      112      IM1      H7       DUMH      0.00000       1.00800           0   0.00000       0.00000    
      8315 IM1      112      IM1      LPN21    LPD     -0.474000       0.00000          -1   0.00000       0.00000    
      8316 IM1      113      IM1      C1       CD33G     1.64330       11.6110           0  -1.08100       1.00000    
      8317 IM1      113      IM1      DC1      DRUD     -1.80430      0.400000           0   0.00000       0.00000    
      8318 IM1      113      IM1      H1       HDA3A    0.940000E-01   1.00800           0   0.00000       0.00000    
      8319 IM1      113      IM1      H2       HDA3A    0.940000E-01   1.00800           0   0.00000       0.00000    
      8320 IM1      113      IM1      H3       HDA3A    0.940000E-01   1.00800           0   0.00000       0.00000    
      8321 IM1      113      IM1      N1       ND2R5A    1.92920       13.6070           0  -1.06300       1.30000    
      8322 IM1      113      IM1      DN1      DRUD     -1.78920      0.400000           0   0.00000       0.00000    
      8323 IM1      113      IM1      C2       CD2R5A    1.66810       11.6110           0  -1.37800       1.30000    
      8324 IM1      113      IM1      DC2      DRUD     -2.03710      0.400000           0   0.00000       0.00000    
      8325 IM1      113      IM1      H4       HDR5A    0.150000       1.00800           0   0.00000       0.00000    
      8326 IM1      113      IM1      C3       CD2R5A    2.22510       11.6110           0  -1.37800       1.30000    
      8327 IM1      113      IM1      DC3      DRUD     -2.03710      0.400000           0   0.00000       0.00000    
      8328 IM1      113      IM1      H5       HDR5A    0.530000E-01   1.00800           0   0.00000       0.00000    
      8329 IM1      113      IM1      C4       CD2R5B    1.73480       11.6110           0 -0.868000       1.30000    
      8330 IM1      113      IM1      DC4      DRUD     -1.61680      0.400000           0   0.00000       0.00000    
      8331 IM1      113      IM1      H6       HDR5B    0.730000E-01   1.00800           0   0.00000       0.00000    
      8332 IM1      113      IM1      N2       ND2R5B    1.59050       13.6070           0 -0.840000       1.00000    
      8333 IM1      113      IM1      DN2      DRUD     -1.59050      0.400000           0   0.00000       0.00000    
      8334 IM1      113      IM1      H7       DUMH      0.00000       1.00800           0   0.00000       0.00000    
      8335 IM1      113      IM1      LPN21    LPD     -0.474000       0.00000          -1   0.00000       0.00000    
      8336 IM1      114      IM1      C1       CD33G     1.64330       11.6110           0  -1.08100       1.00000    
      8337 IM1      114      IM1      DC1      DRUD     -1.80430      0.400000           0   0.00000       0.00000    
      8338 IM1      114      IM1      H1       HDA3A    0.940000E-01   1.00800           0   0.00000       0.00000    
      8339 IM1      114      IM1      H2       HDA3A    0.940000E-01   1.00800           0   0.00000       0.00000    
      8340 IM1      114      IM1      H3       HDA3A    0.940000E-01   1.00800           0   0.00000       0.00000    
      8341 IM1      114      IM1      N1       ND2R5A    1.92920       13.6070           0  -1.06300       1.30000    
      8342 IM1      114      IM1      DN1      DRUD     -1.78920      0.400000           0   0.00000       0.00000    
      8343 IM1      114      IM1      C2       CD2R5A    1.66810       11.6110           0  -1.37800       1.30000    
      8344 IM1      114      IM1      DC2      DRUD     -2.03710      0.400000           0   0.00000       0.00000    
      8345 IM1      114      IM1      H4       HDR5A    0.150000       1.00800           0   0.00000       0.00000    
      8346 IM1      114      IM1      C3       CD2R5A    2.22510       11.6110           0  -1.37800       1.30000    
      8347 IM1      114      IM1      DC3      DRUD     -2.03710      0.400000           0   0.00000       0.00000    
      8348 IM1      114      IM1      H5       HDR5A    0.530000E-01   1.00800           0   0.00000       0.00000    
      8349 IM1      114      IM1      C4       CD2R5B    1.73480       11.6110           0 -0.868000       1.30000    
      8350 IM1      114      IM1      DC4      DRUD     -1.61680      0.400000           0   0.00000       0.00000    
      8351 IM1      114      IM1      H6       HDR5B    0.730000E-01   1.00800           0   0.00000       0.00000    
      8352 IM1      114      IM1      N2       ND2R5B    1.59050       13.6070           0 -0.840000       1.00000    
      8353 IM1      114      IM1      DN2      DRUD     -1.59050      0.400000           0   0.00000       0.00000    
      8354 IM1      114      IM1      H7       DUMH      0.00000       1.00800           0   0.00000       0.00000    
      8355 IM1      114      IM1      LPN21    LPD     -0.474000       0.00000          -1   0.00000       0.00000    
      8356 IM1      115      IM1      C1       CD33G     1.64330       11.6110           0  -1.08100       1.00000    
      8357 IM1      115      IM1      DC1      DRUD     -1.80430      0.400000           0   0.00000       0.00000    
      8358 IM1      115      IM1      H1       HDA3A    0.940000E-01   1.00800           0   0.00000       0.00000    
      8359 IM1      115      IM1      H2       HDA3A    0.940000E-01   1.00800           0   0.00000       0.00000    
      8360 IM1      115      IM1      H3       HDA3A    0.940000E-01   1.00800           0   0.00000       0.00000    
      8361 IM1      115      IM1      N1       ND2R5A    1.92920       13.6070           0  -1.06300       1.30000    
      8362 IM1      115      IM1      DN1      DRUD     -1.78920      0.400000           0   0.00000       0.00000    
      8363 IM1      115      IM1      C2       CD2R5A    1.66810       11.6110           0  -1.37800       1.30000    
      8364 IM1      115      IM1      DC2      DRUD     -2.03710      0.400000           0   0.00000       0.00000    
      8365 IM1      115      IM1      H4       HDR5A    0.150000       1.00800           0   0.00000       0.00000    
      8366 IM1      115      IM1      C3       CD2R5A    2.22510       11.6110           0  -1.37800       1.30000    
      8367 IM1      115      IM1      DC3      DRUD     -2.03710      0.400000           0   0.00000       0.00000    
      8368 IM1      115      IM1      H5       HDR5A    0.530000E-01   1.00800           0   0.00000       0.00000    
      8369 IM1      115      IM1      C4       CD2R5B    1.73480       11.6110           0 -0.868000       1.30000    
      8370 IM1      115      IM1      DC4      DRUD     -1.61680      0.400000           0   0.00000       0.00000    
      8371 IM1      115      IM1      H6       HDR5B    0.730000E-01   1.00800           0   0.00000       0.00000    
      8372 IM1      115      IM1      N2       ND2R5B    1.59050       13.6070           0 -0.840000       1.00000    
      8373 IM1      115      IM1      DN2      DRUD     -1.59050      0.400000           0   0.00000       0.00000    
      8374 IM1      115      IM1      H7       DUMH      0.00000       1.00800           0   0.00000       0.00000    
      8375 IM1      115      IM1      LPN21    LPD     -0.474000       0.00000          -1   0.00000       0.00000    
      8376 IM1      116      IM1      C1       CD33G     1.64330       11.6110           0  -1.08100       1.00000    
      8377 IM1      116      IM1      DC1      DRUD     -1.80430      0.400000           0   0.00000       0.00000    
      8378 IM1      116      IM1      H1       HDA3A    0.940000E-01   1.00800           0   0.00000       0.00000    
      8379 IM1      116      IM1      H2       HDA3A    0.940000E-01   1.00800           0   0.00000       0.00000    
      8380 IM1      116      IM1      H3       HDA3A    0.940000E-01   1.00800           0   0.00000       0.00000    
      8381 IM1      116      IM1      N1       ND2R5A    1.92920       13.6070           0  -1.06300       1.30000    
      8382 IM1      116      IM1      DN1      DRUD     -1.78920      0.400000           0   0.00000       0.00000    
      8383 IM1      116      IM1      C2       CD2R5A    1.66810       11.6110           0  -1.37800       1.30000    
      8384 IM1      116      IM1      DC2      DRUD     -2.03710      0.400000           0   0.00000       0.00000    
      8385 IM1      116      IM1      H4       HDR5A    0.150000       1.00800           0   0.00000       0.00000    
      8386 IM1      116      IM1      C3       CD2R5A    2.22510       11.6110           0  -1.37800       1.30000    
      8387 IM1      116      IM1      DC3      DRUD     -2.03710      0.400000           0   0.00000       0.00000    
      8388 IM1      116      IM1      H5       HDR5A    0.530000E-01   1.00800           0   0.00000       0.00000    
      8389 IM1      116      IM1      C4       CD2R5B    1.73480       11.6110           0 -0.868000       1.30000    
      8390 IM1      116      IM1      DC4      DRUD     -1.61680      0.400000           0   0.00000       0.00000    
      8391 IM1      116      IM1      H6       HDR5B    0.730000E-01   1.00800           0   0.00000       0.00000    
      8392 IM1      116      IM1      N2       ND2R5B    1.59050       13.6070           0 -0.840000       1.00000    
      8393 IM1      116      IM1      DN2      DRUD     -1.59050      0.400000           0   0.00000       0.00000    
      8394 IM1      116      IM1      H7       DUMH      0.00000       1.00800           0   0.00000       0.00000    
      8395 IM1      116      IM1      LPN21    LPD     -0.474000       0.00000          -1   0.00000       0.00000    
      8396 IM1      117      IM1      C1       CD33G     1.64330       11.6110           0  -1.08100       1.00000    
      8397 IM1      117      IM1      DC1      DRUD     -1.80430      0.400000           0   0.00000       0.00000    
      8398 IM1      117      IM1      H1       HDA3A    0.940000E-01   1.00800           0   0.00000       0.00000    
      8399 IM1      117      IM1      H2       HDA3A    0.940000E-01   1.00800           0   0.00000       0.00000    
      8400 IM1      117      IM1      H3       HDA3A    0.940000E-01   1.00800           0   0.00000       0.00000    
      8401 IM1      117      IM1      N1       ND2R5A    1.92920       13.6070           0  -1.06300       1.30000    
      8402 IM1      117      IM1      DN1      DRUD     -1.78920      0.400000           0   0.00000       0.00000    
      8403 IM1      117      IM1      C2       CD2R5A    1.66810       11.6110           0  -1.37800       1.30000    
      8404 IM1      117      IM1      DC2      DRUD     -2.03710      0.400000           0   0.00000       0.00000    
      8405 IM1      117      IM1      H4       HDR5A    0.150000       1.00800           0   0.00000       0.00000    
      8406 IM1      117      IM1      C3       CD2R5A    2.22510       11.6110           0  -1.37800       1.30000    
      8407 IM1      117      IM1      DC3      DRUD     -2.03710      0.400000           0   0.00000       0.00000    
      8408 IM1      117      IM1      H5       HDR5A    0.530000E-01   1.00800           0   0.00000       0.00000    
      8409 IM1      117      IM1      C4       CD2R5B    1.73480       11.6110           0 -0.868000       1.30000    
      8410 IM1      117      IM1      DC4      DRUD     -1.61680      0.400000           0   0.00000       0.00000    
      8411 IM1      117      IM1      H6       HDR5B    0.730000E-01   1.00800           0   0.00000       0.00000    
      8412 IM1      117      IM1      N2       ND2R5B    1.59050       13.6070           0 -0.840000       1.00000    
      8413 IM1      117      IM1      DN2      DRUD     -1.59050      0.400000           0   0.00000       0.00000    
      8414 IM1      117      IM1      H7       DUMH      0.00000       1.00800           0   0.00000       0.00000    
      8415 IM1      117      IM1      LPN21    LPD     -0.474000       0.00000          -1   0.00000       0.00000    
      8416 IM1      118      IM1      C1       CD33G     1.64330       11.6110           0  -1.08100       1.00000    
      8417 IM1      118      IM1      DC1      DRUD     -1.80430      0.400000           0   0.00000       0.00000    
      8418 IM1      118      IM1      H1       HDA3A    0.940000E-01   1.00800           0   0.00000       0.00000    
      8419 IM1      118      IM1      H2       HDA3A    0.940000E-01   1.00800           0   0.00000       0.00000    
      8420 IM1      118      IM1      H3       HDA3A    0.940000E-01   1.00800           0   0.00000       0.00000    
      8421 IM1      118      IM1      N1       ND2R5A    1.92920       13.6070           0  -1.06300       1.30000    
      8422 IM1      118      IM1      DN1      DRUD     -1.78920      0.400000           0   0.00000       0.00000    
      8423 IM1      118      IM1      C2       CD2R5A    1.66810       11.6110           0  -1.37800       1.30000    
      8424 IM1      118      IM1      DC2      DRUD     -2.03710      0.400000           0   0.00000       0.00000    
      8425 IM1      118      IM1      H4       HDR5A    0.150000       1.00800           0   0.00000       0.00000    
      8426 IM1      118      IM1      C3       CD2R5A    2.22510       11.6110           0  -1.37800       1.30000    
      8427 IM1      118      IM1      DC3      DRUD     -2.03710      0.400000           0   0.00000       0.00000    
      8428 IM1      118      IM1      H5       HDR5A    0.530000E-01   1.00800           0   0.00000       0.00000    
      8429 IM1      118      IM1      C4       CD2R5B    1.73480       11.6110           0 -0.868000       1.30000    
      8430 IM1      118      IM1      DC4      DRUD     -1.61680      0.400000           0   0.00000       0.00000    
      8431 IM1      118      IM1      H6       HDR5B    0.730000E-01   1.00800           0   0.00000       0.00000    
      8432 IM1      118      IM1      N2       ND2R5B    1.59050       13.6070           0 -0.840000       1.00000    
      8433 IM1      118      IM1      DN2      DRUD     -1.59050      0.400000           0   0.00000       0.00000    
      8434 IM1      118      IM1      H7       DUMH      0.00000       1.00800           0   0.00000       0.00000    
      8435 IM1      118      IM1      LPN21    LPD     -0.474000       0.00000          -1   0.00000       0.00000    
      8436 IM1      119      IM1      C1       CD33G     1.64330       11.6110           0  -1.08100       1.00000    
      8437 IM1      119      IM1      DC1      DRUD     -1.80430      0.400000           0   0.00000       0.00000    
      8438 IM1      119      IM1      H1       HDA3A    0.940000E-01   1.00800           0   0.00000       0.00000    
      8439 IM1      119      IM1      H2       HDA3A    0.940000E-01   1.00800           0   0.00000       0.00000    
      8440 IM1      119      IM1      H3       HDA3A    0.940000E-01   1.00800           0   0.00000       0.00000    
      8441 IM1      119      IM1      N1       ND2R5A    1.92920       13.6070           0  -1.06300       1.30000    
      8442 IM1      119      IM1      DN1      DRUD     -1.78920      0.400000           0   0.00000       0.00000    
      8443 IM1      119      IM1      C2       CD2R5A    1.66810       11.6110           0  -1.37800       1.30000    
      8444 IM1      119      IM1      DC2      DRUD     -2.03710      0.400000           0   0.00000       0.00000    
      8445 IM1      119      IM1      H4       HDR5A    0.150000       1.00800           0   0.00000       0.00000    
      8446 IM1      119      IM1      C3       CD2R5A    2.22510       11.6110           0  -1.37800       1.30000    
      8447 IM1      119      IM1      DC3      DRUD     -2.03710      0.400000           0   0.00000       0.00000    
      8448 IM1      119      IM1      H5       HDR5A    0.530000E-01   1.00800           0   0.00000       0.00000    
      8449 IM1      119      IM1      C4       CD2R5B    1.73480       11.6110           0 -0.868000       1.30000    
      8450 IM1      119      IM1      DC4      DRUD     -1.61680      0.400000           0   0.00000       0.00000    
      8451 IM1      119      IM1      H6       HDR5B    0.730000E-01   1.00800           0   0.00000       0.00000    
      8452 IM1      119      IM1      N2       ND2R5B    1.59050       13.6070           0 -0.840000       1.00000    
      8453 IM1      119      IM1      DN2      DRUD     -1.59050      0.400000           0   0.00000       0.00000    
      8454 IM1      119      IM1      H7       DUMH      0.00000       1.00800           0   0.00000       0.00000    
      8455 IM1      119      IM1      LPN21    LPD     -0.474000       0.00000          -1   0.00000       0.00000    
      8456 IM1      120      IM1      C1       CD33G     1.64330       11.6110           0  -1.08100       1.00000    
      8457 IM1      120      IM1      DC1      DRUD     -1.80430      0.400000           0   0.00000       0.00000    
      8458 IM1      120      IM1      H1       HDA3A    0.940000E-01   1.00800           0   0.00000       0.00000    
      8459 IM1      120      IM1      H2       HDA3A    0.940000E-01   1.00800           0   0.00000       0.00000    
      8460 IM1      120      IM1      H3       HDA3A    0.940000E-01   1.00800           0   0.00000       0.00000    
      8461 IM1      120      IM1      N1       ND2R5A    1.92920       13.6070           0  -1.06300       1.30000    
      8462 IM1      120      IM1      DN1      DRUD     -1.78920      0.400000           0   0.00000       0.00000    
      8463 IM1      120      IM1      C2       CD2R5A    1.66810       11.6110           0  -1.37800       1.30000    
      8464 IM1      120      IM1      DC2      DRUD     -2.03710      0.400000           0   0.00000       0.00000    
      8465 IM1      120      IM1      H4       HDR5A    0.150000       1.00800           0   0.00000       0.00000    
      8466 IM1      120      IM1      C3       CD2R5A    2.22510       11.6110           0  -1.37800       1.30000    
      8467 IM1      120      IM1      DC3      DRUD     -2.03710      0.400000           0   0.00000       0.00000    
      8468 IM1      120      IM1      H5       HDR5A    0.530000E-01   1.00800           0   0.00000       0.00000    
      8469 IM1      120      IM1      C4       CD2R5B    1.73480       11.6110           0 -0.868000       1.30000    
      8470 IM1      120      IM1      DC4      DRUD     -1.61680      0.400000           0   0.00000       0.00000    
      8471 IM1      120      IM1      H6       HDR5B    0.730000E-01   1.00800           0   0.00000       0.00000    
      8472 IM1      120      IM1      N2       ND2R5B    1.59050       13.6070           0 -0.840000       1.00000    
      8473 IM1      120      IM1      DN2      DRUD     -1.59050      0.400000           0   0.00000       0.00000    
      8474 IM1      120      IM1      H7       DUMH      0.00000       1.00800           0   0.00000       0.00000    
      8475 IM1      120      IM1      LPN21    LPD     -0.474000       0.00000          -1   0.00000       0.00000    
      8476 IM1      121      IM1      C1       CD33G     1.64330       11.6110           0  -1.08100       1.00000    
      8477 IM1      121      IM1      DC1      DRUD     -1.80430      0.400000           0   0.00000       0.00000    
      8478 IM1      121      IM1      H1       HDA3A    0.940000E-01   1.00800           0   0.00000       0.00000    
      8479 IM1      121      IM1      H2       HDA3A    0.940000E-01   1.00800           0   0.00000       0.00000    
      8480 IM1      121      IM1      H3       HDA3A    0.940000E-01   1.00800           0   0.00000       0.00000    
      8481 IM1      121      IM1      N1       ND2R5A    1.92920       13.6070           0  -1.06300       1.30000    
      8482 IM1      121      IM1      DN1      DRUD     -1.78920      0.400000           0   0.00000       0.00000    
      8483 IM1      121      IM1      C2       CD2R5A    1.66810       11.6110           0  -1.37800       1.30000    
      8484 IM1      121      IM1      DC2      DRUD     -2.03710      0.400000           0   0.00000       0.00000    
      8485 IM1      121      IM1      H4       HDR5A    0.150000       1.00800           0   0.00000       0.00000    
      8486 IM1      121      IM1      C3       CD2R5A    2.22510       11.6110           0  -1.37800       1.30000    
      8487 IM1      121      IM1      DC3      DRUD     -2.03710      0.400000           0   0.00000       0.00000    
      8488 IM1      121      IM1      H5       HDR5A    0.530000E-01   1.00800           0   0.00000       0.00000    
      8489 IM1      121      IM1      C4       CD2R5B    1.73480       11.6110           0 -0.868000       1.30000    
      8490 IM1      121      IM1      DC4      DRUD     -1.61680      0.400000           0   0.00000       0.00000    
      8491 IM1      121      IM1      H6       HDR5B    0.730000E-01   1.00800           0   0.00000       0.00000    
      8492 IM1      121      IM1      N2       ND2R5B    1.59050       13.6070           0 -0.840000       1.00000    
      8493 IM1      121      IM1      DN2      DRUD     -1.59050      0.400000           0   0.00000       0.00000    
      8494 IM1      121      IM1      H7       DUMH      0.00000       1.00800           0   0.00000       0.00000    
      8495 IM1      121      IM1      LPN21    LPD     -0.474000       0.00000          -1   0.00000       0.00000    
      8496 IM1      122      IM1      C1       CD33G     1.64330       11.6110           0  -1.08100       1.00000    
      8497 IM1      122      IM1      DC1      DRUD     -1.80430      0.400000           0   0.00000       0.00000    
      8498 IM1      122      IM1      H1       HDA3A    0.940000E-01   1.00800           0   0.00000       0.00000    
      8499 IM1      122      IM1      H2       HDA3A    0.940000E-01   1.00800           0   0.00000       0.00000    
      8500 IM1      122      IM1      H3       HDA3A    0.940000E-01   1.00800           0   0.00000       0.00000    
      8501 IM1      122      IM1      N1       ND2R5A    1.92920       13.6070           0  -1.06300       1.30000    
      8502 IM1      122      IM1      DN1      DRUD     -1.78920      0.400000           0   0.00000       0.00000    
      8503 IM1      122      IM1      C2       CD2R5A    1.66810       11.6110           0  -1.37800       1.30000    
      8504 IM1      122      IM1      DC2      DRUD     -2.03710      0.400000           0   0.00000       0.00000    
      8505 IM1      122      IM1      H4       HDR5A    0.150000       1.00800           0   0.00000       0.00000    
      8506 IM1      122      IM1      C3       CD2R5A    2.22510       11.6110           0  -1.37800       1.30000    
      8507 IM1      122      IM1      DC3      DRUD     -2.03710      0.400000           0   0.00000       0.00000    
      8508 IM1      122      IM1      H5       HDR5A    0.530000E-01   1.00800           0   0.00000       0.00000    
      8509 IM1      122      IM1      C4       CD2R5B    1.73480       11.6110           0 -0.868000       1.30000    
      8510 IM1      122      IM1      DC4      DRUD     -1.61680      0.400000           0   0.00000       0.00000    
      8511 IM1      122      IM1      H6       HDR5B    0.730000E-01   1.00800           0   0.00000       0.00000    
      8512 IM1      122      IM1      N2       ND2R5B    1.59050       13.6070           0 -0.840000       1.00000    
      8513 IM1      122      IM1      DN2      DRUD     -1.59050      0.400000           0   0.00000       0.00000    
      8514 IM1      122      IM1      H7       DUMH      0.00000       1.00800           0   0.00000       0.00000    
      8515 IM1      122      IM1      LPN21    LPD     -0.474000       0.00000          -1   0.00000       0.00000    
      8516 IM1      123      IM1      C1       CD33G     1.64330       11.6110           0  -1.08100       1.00000    
      8517 IM1      123      IM1      DC1      DRUD     -1.80430      0.400000           0   0.00000       0.00000    
      8518 IM1      123      IM1      H1       HDA3A    0.940000E-01   1.00800           0   0.00000       0.00000    
      8519 IM1      123      IM1      H2       HDA3A    0.940000E-01   1.00800           0   0.00000       0.00000    
      8520 IM1      123      IM1      H3       HDA3A    0.940000E-01   1.00800           0   0.00000       0.00000    
      8521 IM1      123      IM1      N1       ND2R5A    1.92920       13.6070           0  -1.06300       1.30000    
      8522 IM1      123      IM1      DN1      DRUD     -1.78920      0.400000           0   0.00000       0.00000    
      8523 IM1      123      IM1      C2       CD2R5A    1.66810       11.6110           0  -1.37800       1.30000    
      8524 IM1      123      IM1      DC2      DRUD     -2.03710      0.400000           0   0.00000       0.00000    
      8525 IM1      123      IM1      H4       HDR5A    0.150000       1.00800           0   0.00000       0.00000    
      8526 IM1      123      IM1      C3       CD2R5A    2.22510       11.6110           0  -1.37800       1.30000    
      8527 IM1      123      IM1      DC3      DRUD     -2.03710      0.400000           0   0.00000       0.00000    
      8528 IM1      123      IM1      H5       HDR5A    0.530000E-01   1.00800           0   0.00000       0.00000    
      8529 IM1      123      IM1      C4       CD2R5B    1.73480       11.6110           0 -0.868000       1.30000    
      8530 IM1      123      IM1      DC4      DRUD     -1.61680      0.400000           0   0.00000       0.00000    
      8531 IM1      123      IM1      H6       HDR5B    0.730000E-01   1.00800           0   0.00000       0.00000    
      8532 IM1      123      IM1      N2       ND2R5B    1.59050       13.6070           0 -0.840000       1.00000    
      8533 IM1      123      IM1      DN2      DRUD     -1.59050      0.400000           0   0.00000       0.00000    
      8534 IM1      123      IM1      H7       DUMH      0.00000       1.00800           0   0.00000       0.00000    
      8535 IM1      123      IM1      LPN21    LPD     -0.474000       0.00000          -1   0.00000       0.00000    
      8536 IM1      124      IM1      C1       CD33G     1.64330       11.6110           0  -1.08100       1.00000    
      8537 IM1      124      IM1      DC1      DRUD     -1.80430      0.400000           0   0.00000       0.00000    
      8538 IM1      124      IM1      H1       HDA3A    0.940000E-01   1.00800           0   0.00000       0.00000    
      8539 IM1      124      IM1      H2       HDA3A    0.940000E-01   1.00800           0   0.00000       0.00000    
      8540 IM1      124      IM1      H3       HDA3A    0.940000E-01   1.00800           0   0.00000       0.00000    
      8541 IM1      124      IM1      N1       ND2R5A    1.92920       13.6070           0  -1.06300       1.30000    
      8542 IM1      124      IM1      DN1      DRUD     -1.78920      0.400000           0   0.00000       0.00000    
      8543 IM1      124      IM1      C2       CD2R5A    1.66810       11.6110           0  -1.37800       1.30000    
      8544 IM1      124      IM1      DC2      DRUD     -2.03710      0.400000           0   0.00000       0.00000    
      8545 IM1      124      IM1      H4       HDR5A    0.150000       1.00800           0   0.00000       0.00000    
      8546 IM1      124      IM1      C3       CD2R5A    2.22510       11.6110           0  -1.37800       1.30000    
      8547 IM1      124      IM1      DC3      DRUD     -2.03710      0.400000           0   0.00000       0.00000    
      8548 IM1      124      IM1      H5       HDR5A    0.530000E-01   1.00800           0   0.00000       0.00000    
      8549 IM1      124      IM1      C4       CD2R5B    1.73480       11.6110           0 -0.868000       1.30000    
      8550 IM1      124      IM1      DC4      DRUD     -1.61680      0.400000           0   0.00000       0.00000    
      8551 IM1      124      IM1      H6       HDR5B    0.730000E-01   1.00800           0   0.00000       0.00000    
      8552 IM1      124      IM1      N2       ND2R5B    1.59050       13.6070           0 -0.840000       1.00000    
      8553 IM1      124      IM1      DN2      DRUD     -1.59050      0.400000           0   0.00000       0.00000    
      8554 IM1      124      IM1      H7       DUMH      0.00000       1.00800           0   0.00000       0.00000    
      8555 IM1      124      IM1      LPN21    LPD     -0.474000       0.00000          -1   0.00000       0.00000    
      8556 IM1      125      IM1      C1       CD33G     1.64330       11.6110           0  -1.08100       1.00000    
      8557 IM1      125      IM1      DC1      DRUD     -1.80430      0.400000           0   0.00000       0.00000    
      8558 IM1      125      IM1      H1       HDA3A    0.940000E-01   1.00800           0   0.00000       0.00000    
      8559 IM1      125      IM1      H2       HDA3A    0.940000E-01   1.00800           0   0.00000       0.00000    
      8560 IM1      125      IM1      H3       HDA3A    0.940000E-01   1.00800           0   0.00000       0.00000    
      8561 IM1      125      IM1      N1       ND2R5A    1.92920       13.6070           0  -1.06300       1.30000    
      8562 IM1      125      IM1      DN1      DRUD     -1.78920      0.400000           0   0.00000       0.00000    
      8563 IM1      125      IM1      C2       CD2R5A    1.66810       11.6110           0  -1.37800       1.30000    
      8564 IM1      125      IM1      DC2      DRUD     -2.03710      0.400000           0   0.00000       0.00000    
      8565 IM1      125      IM1      H4       HDR5A    0.150000       1.00800           0   0.00000       0.00000    
      8566 IM1      125      IM1      C3       CD2R5A    2.22510       11.6110           0  -1.37800       1.30000    
      8567 IM1      125      IM1      DC3      DRUD     -2.03710      0.400000           0   0.00000       0.00000    
      8568 IM1      125      IM1      H5       HDR5A    0.530000E-01   1.00800           0   0.00000       0.00000    
      8569 IM1      125      IM1      C4       CD2R5B    1.73480       11.6110           0 -0.868000       1.30000    
      8570 IM1      125      IM1      DC4      DRUD     -1.61680      0.400000           0   0.00000       0.00000    
      8571 IM1      125      IM1      H6       HDR5B    0.730000E-01   1.00800           0   0.00000       0.00000    
      8572 IM1      125      IM1      N2       ND2R5B    1.59050       13.6070           0 -0.840000       1.00000    
      8573 IM1      125      IM1      DN2      DRUD     -1.59050      0.400000           0   0.00000       0.00000    
      8574 IM1      125      IM1      H7       DUMH      0.00000       1.00800           0   0.00000       0.00000    
      8575 IM1      125      IM1      LPN21    LPD     -0.474000       0.00000          -1   0.00000       0.00000    
      8576 IM1      126      IM1      C1       CD33G     1.64330       11.6110           0  -1.08100       1.00000    
      8577 IM1      126      IM1      DC1      DRUD     -1.80430      0.400000           0   0.00000       0.00000    
      8578 IM1      126      IM1      H1       HDA3A    0.940000E-01   1.00800           0   0.00000       0.00000    
      8579 IM1      126      IM1      H2       HDA3A    0.940000E-01   1.00800           0   0.00000       0.00000    
      8580 IM1      126      IM1      H3       HDA3A    0.940000E-01   1.00800           0   0.00000       0.00000    
      8581 IM1      126      IM1      N1       ND2R5A    1.92920       13.6070           0  -1.06300       1.30000    
      8582 IM1      126      IM1      DN1      DRUD     -1.78920      0.400000           0   0.00000       0.00000    
      8583 IM1      126      IM1      C2       CD2R5A    1.66810       11.6110           0  -1.37800       1.30000    
      8584 IM1      126      IM1      DC2      DRUD     -2.03710      0.400000           0   0.00000       0.00000    
      8585 IM1      126      IM1      H4       HDR5A    0.150000       1.00800           0   0.00000       0.00000    
      8586 IM1      126      IM1      C3       CD2R5A    2.22510       11.6110           0  -1.37800       1.30000    
      8587 IM1      126      IM1      DC3      DRUD     -2.03710      0.400000           0   0.00000       0.00000    
      8588 IM1      126      IM1      H5       HDR5A    0.530000E-01   1.00800           0   0.00000       0.00000    
      8589 IM1      126      IM1      C4       CD2R5B    1.73480       11.6110           0 -0.868000       1.30000    
      8590 IM1      126      IM1      DC4      DRUD     -1.61680      0.400000           0   0.00000       0.00000    
      8591 IM1      126      IM1      H6       HDR5B    0.730000E-01   1.00800           0   0.00000       0.00000    
      8592 IM1      126      IM1      N2       ND2R5B    1.59050       13.6070           0 -0.840000       1.00000    
      8593 IM1      126      IM1      DN2      DRUD     -1.59050      0.400000           0   0.00000       0.00000    
      8594 IM1      126      IM1      H7       DUMH      0.00000       1.00800           0   0.00000       0.00000    
      8595 IM1      126      IM1      LPN21    LPD     -0.474000       0.00000          -1   0.00000       0.00000    
      8596 IM1      127      IM1      C1       CD33G     1.64330       11.6110           0  -1.08100       1.00000    
      8597 IM1      127      IM1      DC1      DRUD     -1.80430      0.400000           0   0.00000       0.00000    
      8598 IM1      127      IM1      H1       HDA3A    0.940000E-01   1.00800           0   0.00000       0.00000    
      8599 IM1      127      IM1      H2       HDA3A    0.940000E-01   1.00800           0   0.00000       0.00000    
      8600 IM1      127      IM1      H3       HDA3A    0.940000E-01   1.00800           0   0.00000       0.00000    
      8601 IM1      127      IM1      N1       ND2R5A    1.92920       13.6070           0  -1.06300       1.30000    
      8602 IM1      127      IM1      DN1      DRUD     -1.78920      0.400000           0   0.00000       0.00000    
      8603 IM1      127      IM1      C2       CD2R5A    1.66810       11.6110           0  -1.37800       1.30000    
      8604 IM1      127      IM1      DC2      DRUD     -2.03710      0.400000           0   0.00000       0.00000    
      8605 IM1      127      IM1      H4       HDR5A    0.150000       1.00800           0   0.00000       0.00000    
      8606 IM1      127      IM1      C3       CD2R5A    2.22510       11.6110           0  -1.37800       1.30000    
      8607 IM1      127      IM1      DC3      DRUD     -2.03710      0.400000           0   0.00000       0.00000    
      8608 IM1      127      IM1      H5       HDR5A    0.530000E-01   1.00800           0   0.00000       0.00000    
      8609 IM1      127      IM1      C4       CD2R5B    1.73480       11.6110           0 -0.868000       1.30000    
      8610 IM1      127      IM1      DC4      DRUD     -1.61680      0.400000           0   0.00000       0.00000    
      8611 IM1      127      IM1      H6       HDR5B    0.730000E-01   1.00800           0   0.00000       0.00000    
      8612 IM1      127      IM1      N2       ND2R5B    1.59050       13.6070           0 -0.840000       1.00000    
      8613 IM1      127      IM1      DN2      DRUD     -1.59050      0.400000           0   0.00000       0.00000    
      8614 IM1      127      IM1      H7       DUMH      0.00000       1.00800           0   0.00000       0.00000    
      8615 IM1      127      IM1      LPN21    LPD     -0.474000       0.00000          -1   0.00000       0.00000    
      8616 IM1      128      IM1      C1       CD33G     1.64330       11.6110           0  -1.08100       1.00000    
      8617 IM1      128      IM1      DC1      DRUD     -1.80430      0.400000           0   0.00000       0.00000    
      8618 IM1      128      IM1      H1       HDA3A    0.940000E-01   1.00800           0   0.00000       0.00000    
      8619 IM1      128      IM1      H2       HDA3A    0.940000E-01   1.00800           0   0.00000       0.00000    
      8620 IM1      128      IM1      H3       HDA3A    0.940000E-01   1.00800           0   0.00000       0.00000    
      8621 IM1      128      IM1      N1       ND2R5A    1.92920       13.6070           0  -1.06300       1.30000    
      8622 IM1      128      IM1      DN1      DRUD     -1.78920      0.400000           0   0.00000       0.00000    
      8623 IM1      128      IM1      C2       CD2R5A    1.66810       11.6110           0  -1.37800       1.30000    
      8624 IM1      128      IM1      DC2      DRUD     -2.03710      0.400000           0   0.00000       0.00000    
      8625 IM1      128      IM1      H4       HDR5A    0.150000       1.00800           0   0.00000       0.00000    
      8626 IM1      128      IM1      C3       CD2R5A    2.22510       11.6110           0  -1.37800       1.30000    
      8627 IM1      128      IM1      DC3      DRUD     -2.03710      0.400000           0   0.00000       0.00000    
      8628 IM1      128      IM1      H5       HDR5A    0.530000E-01   1.00800           0   0.00000       0.00000    
      8629 IM1      128      IM1      C4       CD2R5B    1.73480       11.6110           0 -0.868000       1.30000    
      8630 IM1      128      IM1      DC4      DRUD     -1.61680      0.400000           0   0.00000       0.00000    
      8631 IM1      128      IM1      H6       HDR5B    0.730000E-01   1.00800           0   0.00000       0.00000    
      8632 IM1      128      IM1      N2       ND2R5B    1.59050       13.6070           0 -0.840000       1.00000    
      8633 IM1      128      IM1      DN2      DRUD     -1.59050      0.400000           0   0.00000       0.00000    
      8634 IM1      128      IM1      H7       DUMH      0.00000       1.00800           0   0.00000       0.00000    
      8635 IM1      128      IM1      LPN21    LPD     -0.474000       0.00000          -1   0.00000       0.00000    
      8636 IM1      129      IM1      C1       CD33G     1.64330       11.6110           0  -1.08100       1.00000    
      8637 IM1      129      IM1      DC1      DRUD     -1.80430      0.400000           0   0.00000       0.00000    
      8638 IM1      129      IM1      H1       HDA3A    0.940000E-01   1.00800           0   0.00000       0.00000    
      8639 IM1      129      IM1      H2       HDA3A    0.940000E-01   1.00800           0   0.00000       0.00000    
      8640 IM1      129      IM1      H3       HDA3A    0.940000E-01   1.00800           0   0.00000       0.00000    
      8641 IM1      129      IM1      N1       ND2R5A    1.92920       13.6070           0  -1.06300       1.30000    
      8642 IM1      129      IM1      DN1      DRUD     -1.78920      0.400000           0   0.00000       0.00000    
      8643 IM1      129      IM1      C2       CD2R5A    1.66810       11.6110           0  -1.37800       1.30000    
      8644 IM1      129      IM1      DC2      DRUD     -2.03710      0.400000           0   0.00000       0.00000    
      8645 IM1      129      IM1      H4       HDR5A    0.150000       1.00800           0   0.00000       0.00000    
      8646 IM1      129      IM1      C3       CD2R5A    2.22510       11.6110           0  -1.37800       1.30000    
      8647 IM1      129      IM1      DC3      DRUD     -2.03710      0.400000           0   0.00000       0.00000    
      8648 IM1      129      IM1      H5       HDR5A    0.530000E-01   1.00800           0   0.00000       0.00000    
      8649 IM1      129      IM1      C4       CD2R5B    1.73480       11.6110           0 -0.868000       1.30000    
      8650 IM1      129      IM1      DC4      DRUD     -1.61680      0.400000           0   0.00000       0.00000    
      8651 IM1      129      IM1      H6       HDR5B    0.730000E-01   1.00800           0   0.00000       0.00000    
      8652 IM1      129      IM1      N2       ND2R5B    1.59050       13.6070           0 -0.840000       1.00000    
      8653 IM1      129      IM1      DN2      DRUD     -1.59050      0.400000           0   0.00000       0.00000    
      8654 IM1      129      IM1      H7       DUMH      0.00000       1.00800           0   0.00000       0.00000    
      8655 IM1      129      IM1      LPN21    LPD     -0.474000       0.00000          -1   0.00000       0.00000    
      8656 IM1      130      IM1      C1       CD33G     1.64330       11.6110           0  -1.08100       1.00000    
      8657 IM1      130      IM1      DC1      DRUD     -1.80430      0.400000           0   0.00000       0.00000    
      8658 IM1      130      IM1      H1       HDA3A    0.940000E-01   1.00800           0   0.00000       0.00000    
      8659 IM1      130      IM1      H2       HDA3A    0.940000E-01   1.00800           0   0.00000       0.00000    
      8660 IM1      130      IM1      H3       HDA3A    0.940000E-01   1.00800           0   0.00000       0.00000    
      8661 IM1      130      IM1      N1       ND2R5A    1.92920       13.6070           0  -1.06300       1.30000    
      8662 IM1      130      IM1      DN1      DRUD     -1.78920      0.400000           0   0.00000       0.00000    
      8663 IM1      130      IM1      C2       CD2R5A    1.66810       11.6110           0  -1.37800       1.30000    
      8664 IM1      130      IM1      DC2      DRUD     -2.03710      0.400000           0   0.00000       0.00000    
      8665 IM1      130      IM1      H4       HDR5A    0.150000       1.00800           0   0.00000       0.00000    
      8666 IM1      130      IM1      C3       CD2R5A    2.22510       11.6110           0  -1.37800       1.30000    
      8667 IM1      130      IM1      DC3      DRUD     -2.03710      0.400000           0   0.00000       0.00000    
      8668 IM1      130      IM1      H5       HDR5A    0.530000E-01   1.00800           0   0.00000       0.00000    
      8669 IM1      130      IM1      C4       CD2R5B    1.73480       11.6110           0 -0.868000       1.30000    
      8670 IM1      130      IM1      DC4      DRUD     -1.61680      0.400000           0   0.00000       0.00000    
      8671 IM1      130      IM1      H6       HDR5B    0.730000E-01   1.00800           0   0.00000       0.00000    
      8672 IM1      130      IM1      N2       ND2R5B    1.59050       13.6070           0 -0.840000       1.00000    
      8673 IM1      130      IM1      DN2      DRUD     -1.59050      0.400000           0   0.00000       0.00000    
      8674 IM1      130      IM1      H7       DUMH      0.00000       1.00800           0   0.00000       0.00000    
      8675 IM1      130      IM1      LPN21    LPD     -0.474000       0.00000          -1   0.00000       0.00000    
      8676 IM1      131      IM1      C1       CD33G     1.64330       11.6110           0  -1.08100       1.00000    
      8677 IM1      131      IM1      DC1      DRUD     -1.80430      0.400000           0   0.00000       0.00000    
      8678 IM1      131      IM1      H1       HDA3A    0.940000E-01   1.00800           0   0.00000       0.00000    
      8679 IM1      131      IM1      H2       HDA3A    0.940000E-01   1.00800           0   0.00000       0.00000    
      8680 IM1      131      IM1      H3       HDA3A    0.940000E-01   1.00800           0   0.00000       0.00000    
      8681 IM1      131      IM1      N1       ND2R5A    1.92920       13.6070           0  -1.06300       1.30000    
      8682 IM1      131      IM1      DN1      DRUD     -1.78920      0.400000           0   0.00000       0.00000    
      8683 IM1      131      IM1      C2       CD2R5A    1.66810       11.6110           0  -1.37800       1.30000    
      8684 IM1      131      IM1      DC2      DRUD     -2.03710      0.400000           0   0.00000       0.00000    
      8685 IM1      131      IM1      H4       HDR5A    0.150000       1.00800           0   0.00000       0.00000    
      8686 IM1      131      IM1      C3       CD2R5A    2.22510       11.6110           0  -1.37800       1.30000    
      8687 IM1      131      IM1      DC3      DRUD     -2.03710      0.400000           0   0.00000       0.00000    
      8688 IM1      131      IM1      H5       HDR5A    0.530000E-01   1.00800           0   0.00000       0.00000    
      8689 IM1      131      IM1      C4       CD2R5B    1.73480       11.6110           0 -0.868000       1.30000    
      8690 IM1      131      IM1      DC4      DRUD     -1.61680      0.400000           0   0.00000       0.00000    
      8691 IM1      131      IM1      H6       HDR5B    0.730000E-01   1.00800           0   0.00000       0.00000    
      8692 IM1      131      IM1      N2       ND2R5B    1.59050       13.6070           0 -0.840000       1.00000    
      8693 IM1      131      IM1      DN2      DRUD     -1.59050      0.400000           0   0.00000       0.00000    
      8694 IM1      131      IM1      H7       DUMH      0.00000       1.00800           0   0.00000       0.00000    
      8695 IM1      131      IM1      LPN21    LPD     -0.474000       0.00000          -1   0.00000       0.00000    
      8696 IM1      132      IM1      C1       CD33G     1.64330       11.6110           0  -1.08100       1.00000    
      8697 IM1      132      IM1      DC1      DRUD     -1.80430      0.400000           0   0.00000       0.00000    
      8698 IM1      132      IM1      H1       HDA3A    0.940000E-01   1.00800           0   0.00000       0.00000    
      8699 IM1      132      IM1      H2       HDA3A    0.940000E-01   1.00800           0   0.00000       0.00000    
      8700 IM1      132      IM1      H3       HDA3A    0.940000E-01   1.00800           0   0.00000       0.00000    
      8701 IM1      132      IM1      N1       ND2R5A    1.92920       13.6070           0  -1.06300       1.30000    
      8702 IM1      132      IM1      DN1      DRUD     -1.78920      0.400000           0   0.00000       0.00000    
      8703 IM1      132      IM1      C2       CD2R5A    1.66810       11.6110           0  -1.37800       1.30000    
      8704 IM1      132      IM1      DC2      DRUD     -2.03710      0.400000           0   0.00000       0.00000    
      8705 IM1      132      IM1      H4       HDR5A    0.150000       1.00800           0   0.00000       0.00000    
      8706 IM1      132      IM1      C3       CD2R5A    2.22510       11.6110           0  -1.37800       1.30000    
      8707 IM1      132      IM1      DC3      DRUD     -2.03710      0.400000           0   0.00000       0.00000    
      8708 IM1      132      IM1      H5       HDR5A    0.530000E-01   1.00800           0   0.00000       0.00000    
      8709 IM1      132      IM1      C4       CD2R5B    1.73480       11.6110           0 -0.868000       1.30000    
      8710 IM1      132      IM1      DC4      DRUD     -1.61680      0.400000           0   0.00000       0.00000    
      8711 IM1      132      IM1      H6       HDR5B    0.730000E-01   1.00800           0   0.00000       0.00000    
      8712 IM1      132      IM1      N2       ND2R5B    1.59050       13.6070           0 -0.840000       1.00000    
      8713 IM1      132      IM1      DN2      DRUD     -1.59050      0.400000           0   0.00000       0.00000    
      8714 IM1      132      IM1      H7       DUMH      0.00000       1.00800           0   0.00000       0.00000    
      8715 IM1      132      IM1      LPN21    LPD     -0.474000       0.00000          -1   0.00000       0.00000    
      8716 IM1      133      IM1      C1       CD33G     1.64330       11.6110           0  -1.08100       1.00000    
      8717 IM1      133      IM1      DC1      DRUD     -1.80430      0.400000           0   0.00000       0.00000    
      8718 IM1      133      IM1      H1       HDA3A    0.940000E-01   1.00800           0   0.00000       0.00000    
      8719 IM1      133      IM1      H2       HDA3A    0.940000E-01   1.00800           0   0.00000       0.00000    
      8720 IM1      133      IM1      H3       HDA3A    0.940000E-01   1.00800           0   0.00000       0.00000    
      8721 IM1      133      IM1      N1       ND2R5A    1.92920       13.6070           0  -1.06300       1.30000    
      8722 IM1      133      IM1      DN1      DRUD     -1.78920      0.400000           0   0.00000       0.00000    
      8723 IM1      133      IM1      C2       CD2R5A    1.66810       11.6110           0  -1.37800       1.30000    
      8724 IM1      133      IM1      DC2      DRUD     -2.03710      0.400000           0   0.00000       0.00000    
      8725 IM1      133      IM1      H4       HDR5A    0.150000       1.00800           0   0.00000       0.00000    
      8726 IM1      133      IM1      C3       CD2R5A    2.22510       11.6110           0  -1.37800       1.30000    
      8727 IM1      133      IM1      DC3      DRUD     -2.03710      0.400000           0   0.00000       0.00000    
      8728 IM1      133      IM1      H5       HDR5A    0.530000E-01   1.00800           0   0.00000       0.00000    
      8729 IM1      133      IM1      C4       CD2R5B    1.73480       11.6110           0 -0.868000       1.30000    
      8730 IM1      133      IM1      DC4      DRUD     -1.61680      0.400000           0   0.00000       0.00000    
      8731 IM1      133      IM1      H6       HDR5B    0.730000E-01   1.00800           0   0.00000       0.00000    
      8732 IM1      133      IM1      N2       ND2R5B    1.59050       13.6070           0 -0.840000       1.00000    
      8733 IM1      133      IM1      DN2      DRUD     -1.59050      0.400000           0   0.00000       0.00000    
      8734 IM1      133      IM1      H7       DUMH      0.00000       1.00800           0   0.00000       0.00000    
      8735 IM1      133      IM1      LPN21    LPD     -0.474000       0.00000          -1   0.00000       0.00000    
      8736 IM1      134      IM1      C1       CD33G     1.64330       11.6110           0  -1.08100       1.00000    
      8737 IM1      134      IM1      DC1      DRUD     -1.80430      0.400000           0   0.00000       0.00000    
      8738 IM1      134      IM1      H1       HDA3A    0.940000E-01   1.00800           0   0.00000       0.00000    
      8739 IM1      134      IM1      H2       HDA3A    0.940000E-01   1.00800           0   0.00000       0.00000    
      8740 IM1      134      IM1      H3       HDA3A    0.940000E-01   1.00800           0   0.00000       0.00000    
      8741 IM1      134      IM1      N1       ND2R5A    1.92920       13.6070           0  -1.06300       1.30000    
      8742 IM1      134      IM1      DN1      DRUD     -1.78920      0.400000           0   0.00000       0.00000    
      8743 IM1      134      IM1      C2       CD2R5A    1.66810       11.6110           0  -1.37800       1.30000    
      8744 IM1      134      IM1      DC2      DRUD     -2.03710      0.400000           0   0.00000       0.00000    
      8745 IM1      134      IM1      H4       HDR5A    0.150000       1.00800           0   0.00000       0.00000    
      8746 IM1      134      IM1      C3       CD2R5A    2.22510       11.6110           0  -1.37800       1.30000    
      8747 IM1      134      IM1      DC3      DRUD     -2.03710      0.400000           0   0.00000       0.00000    
      8748 IM1      134      IM1      H5       HDR5A    0.530000E-01   1.00800           0   0.00000       0.00000    
      8749 IM1      134      IM1      C4       CD2R5B    1.73480       11.6110           0 -0.868000       1.30000    
      8750 IM1      134      IM1      DC4      DRUD     -1.61680      0.400000           0   0.00000       0.00000    
      8751 IM1      134      IM1      H6       HDR5B    0.730000E-01   1.00800           0   0.00000       0.00000    
      8752 IM1      134      IM1      N2       ND2R5B    1.59050       13.6070           0 -0.840000       1.00000    
      8753 IM1      134      IM1      DN2      DRUD     -1.59050      0.400000           0   0.00000       0.00000    
      8754 IM1      134      IM1      H7       DUMH      0.00000       1.00800           0   0.00000       0.00000    
      8755 IM1      134      IM1      LPN21    LPD     -0.474000       0.00000          -1   0.00000       0.00000    
      8756 IM1      135      IM1      C1       CD33G     1.64330       11.6110           0  -1.08100       1.00000    
      8757 IM1      135      IM1      DC1      DRUD     -1.80430      0.400000           0   0.00000       0.00000    
      8758 IM1      135      IM1      H1       HDA3A    0.940000E-01   1.00800           0   0.00000       0.00000    
      8759 IM1      135      IM1      H2       HDA3A    0.940000E-01   1.00800           0   0.00000       0.00000    
      8760 IM1      135      IM1      H3       HDA3A    0.940000E-01   1.00800           0   0.00000       0.00000    
      8761 IM1      135      IM1      N1       ND2R5A    1.92920       13.6070           0  -1.06300       1.30000    
      8762 IM1      135      IM1      DN1      DRUD     -1.78920      0.400000           0   0.00000       0.00000    
      8763 IM1      135      IM1      C2       CD2R5A    1.66810       11.6110           0  -1.37800       1.30000    
      8764 IM1      135      IM1      DC2      DRUD     -2.03710      0.400000           0   0.00000       0.00000    
      8765 IM1      135      IM1      H4       HDR5A    0.150000       1.00800           0   0.00000       0.00000    
      8766 IM1      135      IM1      C3       CD2R5A    2.22510       11.6110           0  -1.37800       1.30000    
      8767 IM1      135      IM1      DC3      DRUD     -2.03710      0.400000           0   0.00000       0.00000    
      8768 IM1      135      IM1      H5       HDR5A    0.530000E-01   1.00800           0   0.00000       0.00000    
      8769 IM1      135      IM1      C4       CD2R5B    1.73480       11.6110           0 -0.868000       1.30000    
      8770 IM1      135      IM1      DC4      DRUD     -1.61680      0.400000           0   0.00000       0.00000    
      8771 IM1      135      IM1      H6       HDR5B    0.730000E-01   1.00800           0   0.00000       0.00000    
      8772 IM1      135      IM1      N2       ND2R5B    1.59050       13.6070           0 -0.840000       1.00000    
      8773 IM1      135      IM1      DN2      DRUD     -1.59050      0.400000           0   0.00000       0.00000    
      8774 IM1      135      IM1      H7       DUMH      0.00000       1.00800           0   0.00000       0.00000    
      8775 IM1      135      IM1      LPN21    LPD     -0.474000       0.00000          -1   0.00000       0.00000    
      8776 IM1      136      IM1      C1       CD33G     1.64330       11.6110           0  -1.08100       1.00000    
      8777 IM1      136      IM1      DC1      DRUD     -1.80430      0.400000           0   0.00000       0.00000    
      8778 IM1      136      IM1      H1       HDA3A    0.940000E-01   1.00800           0   0.00000       0.00000    
      8779 IM1      136      IM1      H2       HDA3A    0.940000E-01   1.00800           0   0.00000       0.00000    
      8780 IM1      136      IM1      H3       HDA3A    0.940000E-01   1.00800           0   0.00000       0.00000    
      8781 IM1      136      IM1      N1       ND2R5A    1.92920       13.6070           0  -1.06300       1.30000    
      8782 IM1      136      IM1      DN1      DRUD     -1.78920      0.400000           0   0.00000       0.00000    
      8783 IM1      136      IM1      C2       CD2R5A    1.66810       11.6110           0  -1.37800       1.30000    
      8784 IM1      136      IM1      DC2      DRUD     -2.03710      0.400000           0   0.00000       0.00000    
      8785 IM1      136      IM1      H4       HDR5A    0.150000       1.00800           0   0.00000       0.00000    
      8786 IM1      136      IM1      C3       CD2R5A    2.22510       11.6110           0  -1.37800       1.30000    
      8787 IM1      136      IM1      DC3      DRUD     -2.03710      0.400000           0   0.00000       0.00000    
      8788 IM1      136      IM1      H5       HDR5A    0.530000E-01   1.00800           0   0.00000       0.00000    
      8789 IM1      136      IM1      C4       CD2R5B    1.73480       11.6110           0 -0.868000       1.30000    
      8790 IM1      136      IM1      DC4      DRUD     -1.61680      0.400000           0   0.00000       0.00000    
      8791 IM1      136      IM1      H6       HDR5B    0.730000E-01   1.00800           0   0.00000       0.00000    
      8792 IM1      136      IM1      N2       ND2R5B    1.59050       13.6070           0 -0.840000       1.00000    
      8793 IM1      136      IM1      DN2      DRUD     -1.59050      0.400000           0   0.00000       0.00000    
      8794 IM1      136      IM1      H7       DUMH      0.00000       1.00800           0   0.00000       0.00000    
      8795 IM1      136      IM1      LPN21    LPD     -0.474000       0.00000          -1   0.00000       0.00000    
      8796 IM1      137      IM1      C1       CD33G     1.64330       11.6110           0  -1.08100       1.00000    
      8797 IM1      137      IM1      DC1      DRUD     -1.80430      0.400000           0   0.00000       0.00000    
      8798 IM1      137      IM1      H1       HDA3A    0.940000E-01   1.00800           0   0.00000       0.00000    
      8799 IM1      137      IM1      H2       HDA3A    0.940000E-01   1.00800           0   0.00000       0.00000    
      8800 IM1      137      IM1      H3       HDA3A    0.940000E-01   1.00800           0   0.00000       0.00000    
      8801 IM1      137      IM1      N1       ND2R5A    1.92920       13.6070           0  -1.06300       1.30000    
      8802 IM1      137      IM1      DN1      DRUD     -1.78920      0.400000           0   0.00000       0.00000    
      8803 IM1      137      IM1      C2       CD2R5A    1.66810       11.6110           0  -1.37800       1.30000    
      8804 IM1      137      IM1      DC2      DRUD     -2.03710      0.400000           0   0.00000       0.00000    
      8805 IM1      137      IM1      H4       HDR5A    0.150000       1.00800           0   0.00000       0.00000    
      8806 IM1      137      IM1      C3       CD2R5A    2.22510       11.6110           0  -1.37800       1.30000    
      8807 IM1      137      IM1      DC3      DRUD     -2.03710      0.400000           0   0.00000       0.00000    
      8808 IM1      137      IM1      H5       HDR5A    0.530000E-01   1.00800           0   0.00000       0.00000    
      8809 IM1      137      IM1      C4       CD2R5B    1.73480       11.6110           0 -0.868000       1.30000    
      8810 IM1      137      IM1      DC4      DRUD     -1.61680      0.400000           0   0.00000       0.00000    
      8811 IM1      137      IM1      H6       HDR5B    0.730000E-01   1.00800           0   0.00000       0.00000    
      8812 IM1      137      IM1      N2       ND2R5B    1.59050       13.6070           0 -0.840000       1.00000    
      8813 IM1      137      IM1      DN2      DRUD     -1.59050      0.400000           0   0.00000       0.00000    
      8814 IM1      137      IM1      H7       DUMH      0.00000       1.00800           0   0.00000       0.00000    
      8815 IM1      137      IM1      LPN21    LPD     -0.474000       0.00000          -1   0.00000       0.00000    
      8816 IM1      138      IM1      C1       CD33G     1.64330       11.6110           0  -1.08100       1.00000    
      8817 IM1      138      IM1      DC1      DRUD     -1.80430      0.400000           0   0.00000       0.00000    
      8818 IM1      138      IM1      H1       HDA3A    0.940000E-01   1.00800           0   0.00000       0.00000    
      8819 IM1      138      IM1      H2       HDA3A    0.940000E-01   1.00800           0   0.00000       0.00000    
      8820 IM1      138      IM1      H3       HDA3A    0.940000E-01   1.00800           0   0.00000       0.00000    
      8821 IM1      138      IM1      N1       ND2R5A    1.92920       13.6070           0  -1.06300       1.30000    
      8822 IM1      138      IM1      DN1      DRUD     -1.78920      0.400000           0   0.00000       0.00000    
      8823 IM1      138      IM1      C2       CD2R5A    1.66810       11.6110           0  -1.37800       1.30000    
      8824 IM1      138      IM1      DC2      DRUD     -2.03710      0.400000           0   0.00000       0.00000    
      8825 IM1      138      IM1      H4       HDR5A    0.150000       1.00800           0   0.00000       0.00000    
      8826 IM1      138      IM1      C3       CD2R5A    2.22510       11.6110           0  -1.37800       1.30000    
      8827 IM1      138      IM1      DC3      DRUD     -2.03710      0.400000           0   0.00000       0.00000    
      8828 IM1      138      IM1      H5       HDR5A    0.530000E-01   1.00800           0   0.00000       0.00000    
      8829 IM1      138      IM1      C4       CD2R5B    1.73480       11.6110           0 -0.868000       1.30000    
      8830 IM1      138      IM1      DC4      DRUD     -1.61680      0.400000           0   0.00000       0.00000    
      8831 IM1      138      IM1      H6       HDR5B    0.730000E-01   1.00800           0   0.00000       0.00000    
      8832 IM1      138      IM1      N2       ND2R5B    1.59050       13.6070           0 -0.840000       1.00000    
      8833 IM1      138      IM1      DN2      DRUD     -1.59050      0.400000           0   0.00000       0.00000    
      8834 IM1      138      IM1      H7       DUMH      0.00000       1.00800           0   0.00000       0.00000    
      8835 IM1      138      IM1      LPN21    LPD     -0.474000       0.00000          -1   0.00000       0.00000    
      8836 IM1      139      IM1      C1       CD33G     1.64330       11.6110           0  -1.08100       1.00000    
      8837 IM1      139      IM1      DC1      DRUD     -1.80430      0.400000           0   0.00000       0.00000    
      8838 IM1      139      IM1      H1       HDA3A    0.940000E-01   1.00800           0   0.00000       0.00000    
      8839 IM1      139      IM1      H2       HDA3A    0.940000E-01   1.00800           0   0.00000       0.00000    
      8840 IM1      139      IM1      H3       HDA3A    0.940000E-01   1.00800           0   0.00000       0.00000    
      8841 IM1      139      IM1      N1       ND2R5A    1.92920       13.6070           0  -1.06300       1.30000    
      8842 IM1      139      IM1      DN1      DRUD     -1.78920      0.400000           0   0.00000       0.00000    
      8843 IM1      139      IM1      C2       CD2R5A    1.66810       11.6110           0  -1.37800       1.30000    
      8844 IM1      139      IM1      DC2      DRUD     -2.03710      0.400000           0   0.00000       0.00000    
      8845 IM1      139      IM1      H4       HDR5A    0.150000       1.00800           0   0.00000       0.00000    
      8846 IM1      139      IM1      C3       CD2R5A    2.22510       11.6110           0  -1.37800       1.30000    
      8847 IM1      139      IM1      DC3      DRUD     -2.03710      0.400000           0   0.00000       0.00000    
      8848 IM1      139      IM1      H5       HDR5A    0.530000E-01   1.00800           0   0.00000       0.00000    
      8849 IM1      139      IM1      C4       CD2R5B    1.73480       11.6110           0 -0.868000       1.30000    
      8850 IM1      139      IM1      DC4      DRUD     -1.61680      0.400000           0   0.00000       0.00000    
      8851 IM1      139      IM1      H6       HDR5B    0.730000E-01   1.00800           0   0.00000       0.00000    
      8852 IM1      139      IM1      N2       ND2R5B    1.59050       13.6070           0 -0.840000       1.00000    
      8853 IM1      139      IM1      DN2      DRUD     -1.59050      0.400000           0   0.00000       0.00000    
      8854 IM1      139      IM1      H7       DUMH      0.00000       1.00800           0   0.00000       0.00000    
      8855 IM1      139      IM1      LPN21    LPD     -0.474000       0.00000          -1   0.00000       0.00000    
      8856 IM1      140      IM1      C1       CD33G     1.64330       11.6110           0  -1.08100       1.00000    
      8857 IM1      140      IM1      DC1      DRUD     -1.80430      0.400000           0   0.00000       0.00000    
      8858 IM1      140      IM1      H1       HDA3A    0.940000E-01   1.00800           0   0.00000       0.00000    
      8859 IM1      140      IM1      H2       HDA3A    0.940000E-01   1.00800           0   0.00000       0.00000    
      8860 IM1      140      IM1      H3       HDA3A    0.940000E-01   1.00800           0   0.00000       0.00000    
      8861 IM1      140      IM1      N1       ND2R5A    1.92920       13.6070           0  -1.06300       1.30000    
      8862 IM1      140      IM1      DN1      DRUD     -1.78920      0.400000           0   0.00000       0.00000    
      8863 IM1      140      IM1      C2       CD2R5A    1.66810       11.6110           0  -1.37800       1.30000    
      8864 IM1      140      IM1      DC2      DRUD     -2.03710      0.400000           0   0.00000       0.00000    
      8865 IM1      140      IM1      H4       HDR5A    0.150000       1.00800           0   0.00000       0.00000    
      8866 IM1      140      IM1      C3       CD2R5A    2.22510       11.6110           0  -1.37800       1.30000    
      8867 IM1      140      IM1      DC3      DRUD     -2.03710      0.400000           0   0.00000       0.00000    
      8868 IM1      140      IM1      H5       HDR5A    0.530000E-01   1.00800           0   0.00000       0.00000    
      8869 IM1      140      IM1      C4       CD2R5B    1.73480       11.6110           0 -0.868000       1.30000    
      8870 IM1      140      IM1      DC4      DRUD     -1.61680      0.400000           0   0.00000       0.00000    
      8871 IM1      140      IM1      H6       HDR5B    0.730000E-01   1.00800           0   0.00000       0.00000    
      8872 IM1      140      IM1      N2       ND2R5B    1.59050       13.6070           0 -0.840000       1.00000    
      8873 IM1      140      IM1      DN2      DRUD     -1.59050      0.400000           0   0.00000       0.00000    
      8874 IM1      140      IM1      H7       DUMH      0.00000       1.00800           0   0.00000       0.00000    
      8875 IM1      140      IM1      LPN21    LPD     -0.474000       0.00000          -1   0.00000       0.00000    
      8876 IM1      141      IM1      C1       CD33G     1.64330       11.6110           0  -1.08100       1.00000    
      8877 IM1      141      IM1      DC1      DRUD     -1.80430      0.400000           0   0.00000       0.00000    
      8878 IM1      141      IM1      H1       HDA3A    0.940000E-01   1.00800           0   0.00000       0.00000    
      8879 IM1      141      IM1      H2       HDA3A    0.940000E-01   1.00800           0   0.00000       0.00000    
      8880 IM1      141      IM1      H3       HDA3A    0.940000E-01   1.00800           0   0.00000       0.00000    
      8881 IM1      141      IM1      N1       ND2R5A    1.92920       13.6070           0  -1.06300       1.30000    
      8882 IM1      141      IM1      DN1      DRUD     -1.78920      0.400000           0   0.00000       0.00000    
      8883 IM1      141      IM1      C2       CD2R5A    1.66810       11.6110           0  -1.37800       1.30000    
      8884 IM1      141      IM1      DC2      DRUD     -2.03710      0.400000           0   0.00000       0.00000    
      8885 IM1      141      IM1      H4       HDR5A    0.150000       1.00800           0   0.00000       0.00000    
      8886 IM1      141      IM1      C3       CD2R5A    2.22510       11.6110           0  -1.37800       1.30000    
      8887 IM1      141      IM1      DC3      DRUD     -2.03710      0.400000           0   0.00000       0.00000    
      8888 IM1      141      IM1      H5       HDR5A    0.530000E-01   1.00800           0   0.00000       0.00000    
      8889 IM1      141      IM1      C4       CD2R5B    1.73480       11.6110           0 -0.868000       1.30000    
      8890 IM1      141      IM1      DC4      DRUD     -1.61680      0.400000           0   0.00000       0.00000    
      8891 IM1      141      IM1      H6       HDR5B    0.730000E-01   1.00800           0   0.00000       0.00000    
      8892 IM1      141      IM1      N2       ND2R5B    1.59050       13.6070           0 -0.840000       1.00000    
      8893 IM1      141      IM1      DN2      DRUD     -1.59050      0.400000           0   0.00000       0.00000    
      8894 IM1      141      IM1      H7       DUMH      0.00000       1.00800           0   0.00000       0.00000    
      8895 IM1      141      IM1      LPN21    LPD     -0.474000       0.00000          -1   0.00000       0.00000    
      8896 IM1      142      IM1      C1       CD33G     1.64330       11.6110           0  -1.08100       1.00000    
      8897 IM1      142      IM1      DC1      DRUD     -1.80430      0.400000           0   0.00000       0.00000    
      8898 IM1      142      IM1      H1       HDA3A    0.940000E-01   1.00800           0   0.00000       0.00000    
      8899 IM1      142      IM1      H2       HDA3A    0.940000E-01   1.00800           0   0.00000       0.00000    
      8900 IM1      142      IM1      H3       HDA3A    0.940000E-01   1.00800           0   0.00000       0.00000    
      8901 IM1      142      IM1      N1       ND2R5A    1.92920       13.6070           0  -1.06300       1.30000    
      8902 IM1      142      IM1      DN1      DRUD     -1.78920      0.400000           0   0.00000       0.00000    
      8903 IM1      142      IM1      C2       CD2R5A    1.66810       11.6110           0  -1.37800       1.30000    
      8904 IM1      142      IM1      DC2      DRUD     -2.03710      0.400000           0   0.00000       0.00000    
      8905 IM1      142      IM1      H4       HDR5A    0.150000       1.00800           0   0.00000       0.00000    
      8906 IM1      142      IM1      C3       CD2R5A    2.22510       11.6110           0  -1.37800       1.30000    
      8907 IM1      142      IM1      DC3      DRUD     -2.03710      0.400000           0   0.00000       0.00000    
      8908 IM1      142      IM1      H5       HDR5A    0.530000E-01   1.00800           0   0.00000       0.00000    
      8909 IM1      142      IM1      C4       CD2R5B    1.73480       11.6110           0 -0.868000       1.30000    
      8910 IM1      142      IM1      DC4      DRUD     -1.61680      0.400000           0   0.00000       0.00000    
      8911 IM1      142      IM1      H6       HDR5B    0.730000E-01   1.00800           0   0.00000       0.00000    
      8912 IM1      142      IM1      N2       ND2R5B    1.59050       13.6070           0 -0.840000       1.00000    
      8913 IM1      142      IM1      DN2      DRUD     -1.59050      0.400000           0   0.00000       0.00000    
      8914 IM1      142      IM1      H7       DUMH      0.00000       1.00800           0   0.00000       0.00000    
      8915 IM1      142      IM1      LPN21    LPD     -0.474000       0.00000          -1   0.00000       0.00000    
      8916 IM1      143      IM1      C1       CD33G     1.64330       11.6110           0  -1.08100       1.00000    
      8917 IM1      143      IM1      DC1      DRUD     -1.80430      0.400000           0   0.00000       0.00000    
      8918 IM1      143      IM1      H1       HDA3A    0.940000E-01   1.00800           0   0.00000       0.00000    
      8919 IM1      143      IM1      H2       HDA3A    0.940000E-01   1.00800           0   0.00000       0.00000    
      8920 IM1      143      IM1      H3       HDA3A    0.940000E-01   1.00800           0   0.00000       0.00000    
      8921 IM1      143      IM1      N1       ND2R5A    1.92920       13.6070           0  -1.06300       1.30000    
      8922 IM1      143      IM1      DN1      DRUD     -1.78920      0.400000           0   0.00000       0.00000    
      8923 IM1      143      IM1      C2       CD2R5A    1.66810       11.6110           0  -1.37800       1.30000    
      8924 IM1      143      IM1      DC2      DRUD     -2.03710      0.400000           0   0.00000       0.00000    
      8925 IM1      143      IM1      H4       HDR5A    0.150000       1.00800           0   0.00000       0.00000    
      8926 IM1      143      IM1      C3       CD2R5A    2.22510       11.6110           0  -1.37800       1.30000    
      8927 IM1      143      IM1      DC3      DRUD     -2.03710      0.400000           0   0.00000       0.00000    
      8928 IM1      143      IM1      H5       HDR5A    0.530000E-01   1.00800           0   0.00000       0.00000    
      8929 IM1      143      IM1      C4       CD2R5B    1.73480       11.6110           0 -0.868000       1.30000    
      8930 IM1      143      IM1      DC4      DRUD     -1.61680      0.400000           0   0.00000       0.00000    
      8931 IM1      143      IM1      H6       HDR5B    0.730000E-01   1.00800           0   0.00000       0.00000    
      8932 IM1      143      IM1      N2       ND2R5B    1.59050       13.6070           0 -0.840000       1.00000    
      8933 IM1      143      IM1      DN2      DRUD     -1.59050      0.400000           0   0.00000       0.00000    
      8934 IM1      143      IM1      H7       DUMH      0.00000       1.00800           0   0.00000       0.00000    
      8935 IM1      143      IM1      LPN21    LPD     -0.474000       0.00000          -1   0.00000       0.00000    
      8936 IM1      144      IM1      C1       CD33G     1.64330       11.6110           0  -1.08100       1.00000    
      8937 IM1      144      IM1      DC1      DRUD     -1.80430      0.400000           0   0.00000       0.00000    
      8938 IM1      144      IM1      H1       HDA3A    0.940000E-01   1.00800           0   0.00000       0.00000    
      8939 IM1      144      IM1      H2       HDA3A    0.940000E-01   1.00800           0   0.00000       0.00000    
      8940 IM1      144      IM1      H3       HDA3A    0.940000E-01   1.00800           0   0.00000       0.00000    
      8941 IM1      144      IM1      N1       ND2R5A    1.92920       13.6070           0  -1.06300       1.30000    
      8942 IM1      144      IM1      DN1      DRUD     -1.78920      0.400000           0   0.00000       0.00000    
      8943 IM1      144      IM1      C2       CD2R5A    1.66810       11.6110           0  -1.37800       1.30000    
      8944 IM1      144      IM1      DC2      DRUD     -2.03710      0.400000           0   0.00000       0.00000    
      8945 IM1      144      IM1      H4       HDR5A    0.150000       1.00800           0   0.00000       0.00000    
      8946 IM1      144      IM1      C3       CD2R5A    2.22510       11.6110           0  -1.37800       1.30000    
      8947 IM1      144      IM1      DC3      DRUD     -2.03710      0.400000           0   0.00000       0.00000    
      8948 IM1      144      IM1      H5       HDR5A    0.530000E-01   1.00800           0   0.00000       0.00000    
      8949 IM1      144      IM1      C4       CD2R5B    1.73480       11.6110           0 -0.868000       1.30000    
      8950 IM1      144      IM1      DC4      DRUD     -1.61680      0.400000           0   0.00000       0.00000    
      8951 IM1      144      IM1      H6       HDR5B    0.730000E-01   1.00800           0   0.00000       0.00000    
      8952 IM1      144      IM1      N2       ND2R5B    1.59050       13.6070           0 -0.840000       1.00000    
      8953 IM1      144      IM1      DN2      DRUD     -1.59050      0.400000           0   0.00000       0.00000    
      8954 IM1      144      IM1      H7       DUMH      0.00000       1.00800           0   0.00000       0.00000    
      8955 IM1      144      IM1      LPN21    LPD     -0.474000       0.00000          -1   0.00000       0.00000    
      8956 IM1      145      IM1      C1       CD33G     1.64330       11.6110           0  -1.08100       1.00000    
      8957 IM1      145      IM1      DC1      DRUD     -1.80430      0.400000           0   0.00000       0.00000    
      8958 IM1      145      IM1      H1       HDA3A    0.940000E-01   1.00800           0   0.00000       0.00000    
      8959 IM1      145      IM1      H2       HDA3A    0.940000E-01   1.00800           0   0.00000       0.00000    
      8960 IM1      145      IM1      H3       HDA3A    0.940000E-01   1.00800           0   0.00000       0.00000    
      8961 IM1      145      IM1      N1       ND2R5A    1.92920       13.6070           0  -1.06300       1.30000    
      8962 IM1      145      IM1      DN1      DRUD     -1.78920      0.400000           0   0.00000       0.00000    
      8963 IM1      145      IM1      C2       CD2R5A    1.66810       11.6110           0  -1.37800       1.30000    
      8964 IM1      145      IM1      DC2      DRUD     -2.03710      0.400000           0   0.00000       0.00000    
      8965 IM1      145      IM1      H4       HDR5A    0.150000       1.00800           0   0.00000       0.00000    
      8966 IM1      145      IM1      C3       CD2R5A    2.22510       11.6110           0  -1.37800       1.30000    
      8967 IM1      145      IM1      DC3      DRUD     -2.03710      0.400000           0   0.00000       0.00000    
      8968 IM1      145      IM1      H5       HDR5A    0.530000E-01   1.00800           0   0.00000       0.00000    
      8969 IM1      145      IM1      C4       CD2R5B    1.73480       11.6110           0 -0.868000       1.30000    
      8970 IM1      145      IM1      DC4      DRUD     -1.61680      0.400000           0   0.00000       0.00000    
      8971 IM1      145      IM1      H6       HDR5B    0.730000E-01   1.00800           0   0.00000       0.00000    
      8972 IM1      145      IM1      N2       ND2R5B    1.59050       13.6070           0 -0.840000       1.00000    
      8973 IM1      145      IM1      DN2      DRUD     -1.59050      0.400000           0   0.00000       0.00000    
      8974 IM1      145      IM1      H7       DUMH      0.00000       1.00800           0   0.00000       0.00000    
      8975 IM1      145      IM1      LPN21    LPD     -0.474000       0.00000          -1   0.00000       0.00000    
      8976 IM1      146      IM1      C1       CD33G     1.64330       11.6110           0  -1.08100       1.00000    
      8977 IM1      146      IM1      DC1      DRUD     -1.80430      0.400000           0   0.00000       0.00000    
      8978 IM1      146      IM1      H1       HDA3A    0.940000E-01   1.00800           0   0.00000       0.00000    
      8979 IM1      146      IM1      H2       HDA3A    0.940000E-01   1.00800           0   0.00000       0.00000    
      8980 IM1      146      IM1      H3       HDA3A    0.940000E-01   1.00800           0   0.00000       0.00000    
      8981 IM1      146      IM1      N1       ND2R5A    1.92920       13.6070           0  -1.06300       1.30000    
      8982 IM1      146      IM1      DN1      DRUD     -1.78920      0.400000           0   0.00000       0.00000    
      8983 IM1      146      IM1      C2       CD2R5A    1.66810       11.6110           0  -1.37800       1.30000    
      8984 IM1      146      IM1      DC2      DRUD     -2.03710      0.400000           0   0.00000       0.00000    
      8985 IM1      146      IM1      H4       HDR5A    0.150000       1.00800           0   0.00000       0.00000    
      8986 IM1      146      IM1      C3       CD2R5A    2.22510       11.6110           0  -1.37800       1.30000    
      8987 IM1      146      IM1      DC3      DRUD     -2.03710      0.400000           0   0.00000       0.00000    
      8988 IM1      146      IM1      H5       HDR5A    0.530000E-01   1.00800           0   0.00000       0.00000    
      8989 IM1      146      IM1      C4       CD2R5B    1.73480       11.6110           0 -0.868000       1.30000    
      8990 IM1      146      IM1      DC4      DRUD     -1.61680      0.400000           0   0.00000       0.00000    
      8991 IM1      146      IM1      H6       HDR5B    0.730000E-01   1.00800           0   0.00000       0.00000    
      8992 IM1      146      IM1      N2       ND2R5B    1.59050       13.6070           0 -0.840000       1.00000    
      8993 IM1      146      IM1      DN2      DRUD     -1.59050      0.400000           0   0.00000       0.00000    
      8994 IM1      146      IM1      H7       DUMH      0.00000       1.00800           0   0.00000       0.00000    
      8995 IM1      146      IM1      LPN21    LPD     -0.474000       0.00000          -1   0.00000       0.00000    
      8996 IM1      147      IM1      C1       CD33G     1.64330       11.6110           0  -1.08100       1.00000    
      8997 IM1      147      IM1      DC1      DRUD     -1.80430      0.400000           0   0.00000       0.00000    
      8998 IM1      147      IM1      H1       HDA3A    0.940000E-01   1.00800           0   0.00000       0.00000    
      8999 IM1      147      IM1      H2       HDA3A    0.940000E-01   1.00800           0   0.00000       0.00000    
      9000 IM1      147      IM1      H3       HDA3A    0.940000E-01   1.00800           0   0.00000       0.00000    
      9001 IM1      147      IM1      N1       ND2R5A    1.92920       13.6070           0  -1.06300       1.30000    
      9002 IM1      147      IM1      DN1      DRUD     -1.78920      0.400000           0   0.00000       0.00000    
      9003 IM1      147      IM1      C2       CD2R5A    1.66810       11.6110           0  -1.37800       1.30000    
      9004 IM1      147      IM1      DC2      DRUD     -2.03710      0.400000           0   0.00000       0.00000    
      9005 IM1      147      IM1      H4       HDR5A    0.150000       1.00800           0   0.00000       0.00000    
      9006 IM1      147      IM1      C3       CD2R5A    2.22510       11.6110           0  -1.37800       1.30000    
      9007 IM1      147      IM1      DC3      DRUD     -2.03710      0.400000           0   0.00000       0.00000    
      9008 IM1      147      IM1      H5       HDR5A    0.530000E-01   1.00800           0   0.00000       0.00000    
      9009 IM1      147      IM1      C4       CD2R5B    1.73480       11.6110           0 -0.868000       1.30000    
      9010 IM1      147      IM1      DC4      DRUD     -1.61680      0.400000           0   0.00000       0.00000    
      9011 IM1      147      IM1      H6       HDR5B    0.730000E-01   1.00800           0   0.00000       0.00000    
      9012 IM1      147      IM1      N2       ND2R5B    1.59050       13.6070           0 -0.840000       1.00000    
      9013 IM1      147      IM1      DN2      DRUD     -1.59050      0.400000           0   0.00000       0.00000    
      9014 IM1      147      IM1      H7       DUMH      0.00000       1.00800           0   0.00000       0.00000    
      9015 IM1      147      IM1      LPN21    LPD     -0.474000       0.00000          -1   0.00000       0.00000    
      9016 IM1      148      IM1      C1       CD33G     1.64330       11.6110           0  -1.08100       1.00000    
      9017 IM1      148      IM1      DC1      DRUD     -1.80430      0.400000           0   0.00000       0.00000    
      9018 IM1      148      IM1      H1       HDA3A    0.940000E-01   1.00800           0   0.00000       0.00000    
      9019 IM1      148      IM1      H2       HDA3A    0.940000E-01   1.00800           0   0.00000       0.00000    
      9020 IM1      148      IM1      H3       HDA3A    0.940000E-01   1.00800           0   0.00000       0.00000    
      9021 IM1      148      IM1      N1       ND2R5A    1.92920       13.6070           0  -1.06300       1.30000    
      9022 IM1      148      IM1      DN1      DRUD     -1.78920      0.400000           0   0.00000       0.00000    
      9023 IM1      148      IM1      C2       CD2R5A    1.66810       11.6110           0  -1.37800       1.30000    
      9024 IM1      148      IM1      DC2      DRUD     -2.03710      0.400000           0   0.00000       0.00000    
      9025 IM1      148      IM1      H4       HDR5A    0.150000       1.00800           0   0.00000       0.00000    
      9026 IM1      148      IM1      C3       CD2R5A    2.22510       11.6110           0  -1.37800       1.30000    
      9027 IM1      148      IM1      DC3      DRUD     -2.03710      0.400000           0   0.00000       0.00000    
      9028 IM1      148      IM1      H5       HDR5A    0.530000E-01   1.00800           0   0.00000       0.00000    
      9029 IM1      148      IM1      C4       CD2R5B    1.73480       11.6110           0 -0.868000       1.30000    
      9030 IM1      148      IM1      DC4      DRUD     -1.61680      0.400000           0   0.00000       0.00000    
      9031 IM1      148      IM1      H6       HDR5B    0.730000E-01   1.00800           0   0.00000       0.00000    
      9032 IM1      148      IM1      N2       ND2R5B    1.59050       13.6070           0 -0.840000       1.00000    
      9033 IM1      148      IM1      DN2      DRUD     -1.59050      0.400000           0   0.00000       0.00000    
      9034 IM1      148      IM1      H7       DUMH      0.00000       1.00800           0   0.00000       0.00000    
      9035 IM1      148      IM1      LPN21    LPD     -0.474000       0.00000          -1   0.00000       0.00000    
      9036 IM1      149      IM1      C1       CD33G     1.64330       11.6110           0  -1.08100       1.00000    
      9037 IM1      149      IM1      DC1      DRUD     -1.80430      0.400000           0   0.00000       0.00000    
      9038 IM1      149      IM1      H1       HDA3A    0.940000E-01   1.00800           0   0.00000       0.00000    
      9039 IM1      149      IM1      H2       HDA3A    0.940000E-01   1.00800           0   0.00000       0.00000    
      9040 IM1      149      IM1      H3       HDA3A    0.940000E-01   1.00800           0   0.00000       0.00000    
      9041 IM1      149      IM1      N1       ND2R5A    1.92920       13.6070           0  -1.06300       1.30000    
      9042 IM1      149      IM1      DN1      DRUD     -1.78920      0.400000           0   0.00000       0.00000    
      9043 IM1      149      IM1      C2       CD2R5A    1.66810       11.6110           0  -1.37800       1.30000    
      9044 IM1      149      IM1      DC2      DRUD     -2.03710      0.400000           0   0.00000       0.00000    
      9045 IM1      149      IM1      H4       HDR5A    0.150000       1.00800           0   0.00000       0.00000    
      9046 IM1      149      IM1      C3       CD2R5A    2.22510       11.6110           0  -1.37800       1.30000    
      9047 IM1      149      IM1      DC3      DRUD     -2.03710      0.400000           0   0.00000       0.00000    
      9048 IM1      149      IM1      H5       HDR5A    0.530000E-01   1.00800           0   0.00000       0.00000    
      9049 IM1      149      IM1      C4       CD2R5B    1.73480       11.6110           0 -0.868000       1.30000    
      9050 IM1      149      IM1      DC4      DRUD     -1.61680      0.400000           0   0.00000       0.00000    
      9051 IM1      149      IM1      H6       HDR5B    0.730000E-01   1.00800           0   0.00000       0.00000    
      9052 IM1      149      IM1      N2       ND2R5B    1.59050       13.6070           0 -0.840000       1.00000    
      9053 IM1      149      IM1      DN2      DRUD     -1.59050      0.400000           0   0.00000       0.00000    
      9054 IM1      149      IM1      H7       DUMH      0.00000       1.00800           0   0.00000       0.00000    
      9055 IM1      149      IM1      LPN21    LPD     -0.474000       0.00000          -1   0.00000       0.00000    
      9056 IM1      150      IM1      C1       CD33G     1.64330       11.6110           0  -1.08100       1.00000    
      9057 IM1      150      IM1      DC1      DRUD     -1.80430      0.400000           0   0.00000       0.00000    
      9058 IM1      150      IM1      H1       HDA3A    0.940000E-01   1.00800           0   0.00000       0.00000    
      9059 IM1      150      IM1      H2       HDA3A    0.940000E-01   1.00800           0   0.00000       0.00000    
      9060 IM1      150      IM1      H3       HDA3A    0.940000E-01   1.00800           0   0.00000       0.00000    
      9061 IM1      150      IM1      N1       ND2R5A    1.92920       13.6070           0  -1.06300       1.30000    
      9062 IM1      150      IM1      DN1      DRUD     -1.78920      0.400000           0   0.00000       0.00000    
      9063 IM1      150      IM1      C2       CD2R5A    1.66810       11.6110           0  -1.37800       1.30000    
      9064 IM1      150      IM1      DC2      DRUD     -2.03710      0.400000           0   0.00000       0.00000    
      9065 IM1      150      IM1      H4       HDR5A    0.150000       1.00800           0   0.00000       0.00000    
      9066 IM1      150      IM1      C3       CD2R5A    2.22510       11.6110           0  -1.37800       1.30000    
      9067 IM1      150      IM1      DC3      DRUD     -2.03710      0.400000           0   0.00000       0.00000    
      9068 IM1      150      IM1      H5       HDR5A    0.530000E-01   1.00800           0   0.00000       0.00000    
      9069 IM1      150      IM1      C4       CD2R5B    1.73480       11.6110           0 -0.868000       1.30000    
      9070 IM1      150      IM1      DC4      DRUD     -1.61680      0.400000           0   0.00000       0.00000    
      9071 IM1      150      IM1      H6       HDR5B    0.730000E-01   1.00800           0   0.00000       0.00000    
      9072 IM1      150      IM1      N2       ND2R5B    1.59050       13.6070           0 -0.840000       1.00000    
      9073 IM1      150      IM1      DN2      DRUD     -1.59050      0.400000           0   0.00000       0.00000    
      9074 IM1      150      IM1      H7       DUMH      0.00000       1.00800           0   0.00000       0.00000    
      9075 IM1      150      IM1      LPN21    LPD     -0.474000       0.00000          -1   0.00000       0.00000    
      9076 IM1      151      IM1      C1       CD33G     1.64330       11.6110           0  -1.08100       1.00000    
      9077 IM1      151      IM1      DC1      DRUD     -1.80430      0.400000           0   0.00000       0.00000    
      9078 IM1      151      IM1      H1       HDA3A    0.940000E-01   1.00800           0   0.00000       0.00000    
      9079 IM1      151      IM1      H2       HDA3A    0.940000E-01   1.00800           0   0.00000       0.00000    
      9080 IM1      151      IM1      H3       HDA3A    0.940000E-01   1.00800           0   0.00000       0.00000    
      9081 IM1      151      IM1      N1       ND2R5A    1.92920       13.6070           0  -1.06300       1.30000    
      9082 IM1      151      IM1      DN1      DRUD     -1.78920      0.400000           0   0.00000       0.00000    
      9083 IM1      151      IM1      C2       CD2R5A    1.66810       11.6110           0  -1.37800       1.30000    
      9084 IM1      151      IM1      DC2      DRUD     -2.03710      0.400000           0   0.00000       0.00000    
      9085 IM1      151      IM1      H4       HDR5A    0.150000       1.00800           0   0.00000       0.00000    
      9086 IM1      151      IM1      C3       CD2R5A    2.22510       11.6110           0  -1.37800       1.30000    
      9087 IM1      151      IM1      DC3      DRUD     -2.03710      0.400000           0   0.00000       0.00000    
      9088 IM1      151      IM1      H5       HDR5A    0.530000E-01   1.00800           0   0.00000       0.00000    
      9089 IM1      151      IM1      C4       CD2R5B    1.73480       11.6110           0 -0.868000       1.30000    
      9090 IM1      151      IM1      DC4      DRUD     -1.61680      0.400000           0   0.00000       0.00000    
      9091 IM1      151      IM1      H6       HDR5B    0.730000E-01   1.00800           0   0.00000       0.00000    
      9092 IM1      151      IM1      N2       ND2R5B    1.59050       13.6070           0 -0.840000       1.00000    
      9093 IM1      151      IM1      DN2      DRUD     -1.59050      0.400000           0   0.00000       0.00000    
      9094 IM1      151      IM1      H7       DUMH      0.00000       1.00800           0   0.00000       0.00000    
      9095 IM1      151      IM1      LPN21    LPD     -0.474000       0.00000          -1   0.00000       0.00000    
      9096 IM1      152      IM1      C1       CD33G     1.64330       11.6110           0  -1.08100       1.00000    
      9097 IM1      152      IM1      DC1      DRUD     -1.80430      0.400000           0   0.00000       0.00000    
      9098 IM1      152      IM1      H1       HDA3A    0.940000E-01   1.00800           0   0.00000       0.00000    
      9099 IM1      152      IM1      H2       HDA3A    0.940000E-01   1.00800           0   0.00000       0.00000    
      9100 IM1      152      IM1      H3       HDA3A    0.940000E-01   1.00800           0   0.00000       0.00000    
      9101 IM1      152      IM1      N1       ND2R5A    1.92920       13.6070           0  -1.06300       1.30000    
      9102 IM1      152      IM1      DN1      DRUD     -1.78920      0.400000           0   0.00000       0.00000    
      9103 IM1      152      IM1      C2       CD2R5A    1.66810       11.6110           0  -1.37800       1.30000    
      9104 IM1      152      IM1      DC2      DRUD     -2.03710      0.400000           0   0.00000       0.00000    
      9105 IM1      152      IM1      H4       HDR5A    0.150000       1.00800           0   0.00000       0.00000    
      9106 IM1      152      IM1      C3       CD2R5A    2.22510       11.6110           0  -1.37800       1.30000    
      9107 IM1      152      IM1      DC3      DRUD     -2.03710      0.400000           0   0.00000       0.00000    
      9108 IM1      152      IM1      H5       HDR5A    0.530000E-01   1.00800           0   0.00000       0.00000    
      9109 IM1      152      IM1      C4       CD2R5B    1.73480       11.6110           0 -0.868000       1.30000    
      9110 IM1      152      IM1      DC4      DRUD     -1.61680      0.400000           0   0.00000       0.00000    
      9111 IM1      152      IM1      H6       HDR5B    0.730000E-01   1.00800           0   0.00000       0.00000    
      9112 IM1      152      IM1      N2       ND2R5B    1.59050       13.6070           0 -0.840000       1.00000    
      9113 IM1      152      IM1      DN2      DRUD     -1.59050      0.400000           0   0.00000       0.00000    
      9114 IM1      152      IM1      H7       DUMH      0.00000       1.00800           0   0.00000       0.00000    
      9115 IM1      152      IM1      LPN21    LPD     -0.474000       0.00000          -1   0.00000       0.00000    
      9116 IM1      153      IM1      C1       CD33G     1.64330       11.6110           0  -1.08100       1.00000    
      9117 IM1      153      IM1      DC1      DRUD     -1.80430      0.400000           0   0.00000       0.00000    
      9118 IM1      153      IM1      H1       HDA3A    0.940000E-01   1.00800           0   0.00000       0.00000    
      9119 IM1      153      IM1      H2       HDA3A    0.940000E-01   1.00800           0   0.00000       0.00000    
      9120 IM1      153      IM1      H3       HDA3A    0.940000E-01   1.00800           0   0.00000       0.00000    
      9121 IM1      153      IM1      N1       ND2R5A    1.92920       13.6070           0  -1.06300       1.30000    
      9122 IM1      153      IM1      DN1      DRUD     -1.78920      0.400000           0   0.00000       0.00000    
      9123 IM1      153      IM1      C2       CD2R5A    1.66810       11.6110           0  -1.37800       1.30000    
      9124 IM1      153      IM1      DC2      DRUD     -2.03710      0.400000           0   0.00000       0.00000    
      9125 IM1      153      IM1      H4       HDR5A    0.150000       1.00800           0   0.00000       0.00000    
      9126 IM1      153      IM1      C3       CD2R5A    2.22510       11.6110           0  -1.37800       1.30000    
      9127 IM1      153      IM1      DC3      DRUD     -2.03710      0.400000           0   0.00000       0.00000    
      9128 IM1      153      IM1      H5       HDR5A    0.530000E-01   1.00800           0   0.00000       0.00000    
      9129 IM1      153      IM1      C4       CD2R5B    1.73480       11.6110           0 -0.868000       1.30000    
      9130 IM1      153      IM1      DC4      DRUD     -1.61680      0.400000           0   0.00000       0.00000    
      9131 IM1      153      IM1      H6       HDR5B    0.730000E-01   1.00800           0   0.00000       0.00000    
      9132 IM1      153      IM1      N2       ND2R5B    1.59050       13.6070           0 -0.840000       1.00000    
      9133 IM1      153      IM1      DN2      DRUD     -1.59050      0.400000           0   0.00000       0.00000    
      9134 IM1      153      IM1      H7       DUMH      0.00000       1.00800           0   0.00000       0.00000    
      9135 IM1      153      IM1      LPN21    LPD     -0.474000       0.00000          -1   0.00000       0.00000    
      9136 IM1      154      IM1      C1       CD33G     1.64330       11.6110           0  -1.08100       1.00000    
      9137 IM1      154      IM1      DC1      DRUD     -1.80430      0.400000           0   0.00000       0.00000    
      9138 IM1      154      IM1      H1       HDA3A    0.940000E-01   1.00800           0   0.00000       0.00000    
      9139 IM1      154      IM1      H2       HDA3A    0.940000E-01   1.00800           0   0.00000       0.00000    
      9140 IM1      154      IM1      H3       HDA3A    0.940000E-01   1.00800           0   0.00000       0.00000    
      9141 IM1      154      IM1      N1       ND2R5A    1.92920       13.6070           0  -1.06300       1.30000    
      9142 IM1      154      IM1      DN1      DRUD     -1.78920      0.400000           0   0.00000       0.00000    
      9143 IM1      154      IM1      C2       CD2R5A    1.66810       11.6110           0  -1.37800       1.30000    
      9144 IM1      154      IM1      DC2      DRUD     -2.03710      0.400000           0   0.00000       0.00000    
      9145 IM1      154      IM1      H4       HDR5A    0.150000       1.00800           0   0.00000       0.00000    
      9146 IM1      154      IM1      C3       CD2R5A    2.22510       11.6110           0  -1.37800       1.30000    
      9147 IM1      154      IM1      DC3      DRUD     -2.03710      0.400000           0   0.00000       0.00000    
      9148 IM1      154      IM1      H5       HDR5A    0.530000E-01   1.00800           0   0.00000       0.00000    
      9149 IM1      154      IM1      C4       CD2R5B    1.73480       11.6110           0 -0.868000       1.30000    
      9150 IM1      154      IM1      DC4      DRUD     -1.61680      0.400000           0   0.00000       0.00000    
      9151 IM1      154      IM1      H6       HDR5B    0.730000E-01   1.00800           0   0.00000       0.00000    
      9152 IM1      154      IM1      N2       ND2R5B    1.59050       13.6070           0 -0.840000       1.00000    
      9153 IM1      154      IM1      DN2      DRUD     -1.59050      0.400000           0   0.00000       0.00000    
      9154 IM1      154      IM1      H7       DUMH      0.00000       1.00800           0   0.00000       0.00000    
      9155 IM1      154      IM1      LPN21    LPD     -0.474000       0.00000          -1   0.00000       0.00000    
      9156 IM1      155      IM1      C1       CD33G     1.64330       11.6110           0  -1.08100       1.00000    
      9157 IM1      155      IM1      DC1      DRUD     -1.80430      0.400000           0   0.00000       0.00000    
      9158 IM1      155      IM1      H1       HDA3A    0.940000E-01   1.00800           0   0.00000       0.00000    
      9159 IM1      155      IM1      H2       HDA3A    0.940000E-01   1.00800           0   0.00000       0.00000    
      9160 IM1      155      IM1      H3       HDA3A    0.940000E-01   1.00800           0   0.00000       0.00000    
      9161 IM1      155      IM1      N1       ND2R5A    1.92920       13.6070           0  -1.06300       1.30000    
      9162 IM1      155      IM1      DN1      DRUD     -1.78920      0.400000           0   0.00000       0.00000    
      9163 IM1      155      IM1      C2       CD2R5A    1.66810       11.6110           0  -1.37800       1.30000    
      9164 IM1      155      IM1      DC2      DRUD     -2.03710      0.400000           0   0.00000       0.00000    
      9165 IM1      155      IM1      H4       HDR5A    0.150000       1.00800           0   0.00000       0.00000    
      9166 IM1      155      IM1      C3       CD2R5A    2.22510       11.6110           0  -1.37800       1.30000    
      9167 IM1      155      IM1      DC3      DRUD     -2.03710      0.400000           0   0.00000       0.00000    
      9168 IM1      155      IM1      H5       HDR5A    0.530000E-01   1.00800           0   0.00000       0.00000    
      9169 IM1      155      IM1      C4       CD2R5B    1.73480       11.6110           0 -0.868000       1.30000    
      9170 IM1      155      IM1      DC4      DRUD     -1.61680      0.400000           0   0.00000       0.00000    
      9171 IM1      155      IM1      H6       HDR5B    0.730000E-01   1.00800           0   0.00000       0.00000    
      9172 IM1      155      IM1      N2       ND2R5B    1.59050       13.6070           0 -0.840000       1.00000    
      9173 IM1      155      IM1      DN2      DRUD     -1.59050      0.400000           0   0.00000       0.00000    
      9174 IM1      155      IM1      H7       DUMH      0.00000       1.00800           0   0.00000       0.00000    
      9175 IM1      155      IM1      LPN21    LPD     -0.474000       0.00000          -1   0.00000       0.00000    
      9176 IM1      156      IM1      C1       CD33G     1.64330       11.6110           0  -1.08100       1.00000    
      9177 IM1      156      IM1      DC1      DRUD     -1.80430      0.400000           0   0.00000       0.00000    
      9178 IM1      156      IM1      H1       HDA3A    0.940000E-01   1.00800           0   0.00000       0.00000    
      9179 IM1      156      IM1      H2       HDA3A    0.940000E-01   1.00800           0   0.00000       0.00000    
      9180 IM1      156      IM1      H3       HDA3A    0.940000E-01   1.00800           0   0.00000       0.00000    
      9181 IM1      156      IM1      N1       ND2R5A    1.92920       13.6070           0  -1.06300       1.30000    
      9182 IM1      156      IM1      DN1      DRUD     -1.78920      0.400000           0   0.00000       0.00000    
      9183 IM1      156      IM1      C2       CD2R5A    1.66810       11.6110           0  -1.37800       1.30000    
      9184 IM1      156      IM1      DC2      DRUD     -2.03710      0.400000           0   0.00000       0.00000    
      9185 IM1      156      IM1      H4       HDR5A    0.150000       1.00800           0   0.00000       0.00000    
      9186 IM1      156      IM1      C3       CD2R5A    2.22510       11.6110           0  -1.37800       1.30000    
      9187 IM1      156      IM1      DC3      DRUD     -2.03710      0.400000           0   0.00000       0.00000    
      9188 IM1      156      IM1      H5       HDR5A    0.530000E-01   1.00800           0   0.00000       0.00000    
      9189 IM1      156      IM1      C4       CD2R5B    1.73480       11.6110           0 -0.868000       1.30000    
      9190 IM1      156      IM1      DC4      DRUD     -1.61680      0.400000           0   0.00000       0.00000    
      9191 IM1      156      IM1      H6       HDR5B    0.730000E-01   1.00800           0   0.00000       0.00000    
      9192 IM1      156      IM1      N2       ND2R5B    1.59050       13.6070           0 -0.840000       1.00000    
      9193 IM1      156      IM1      DN2      DRUD     -1.59050      0.400000           0   0.00000       0.00000    
      9194 IM1      156      IM1      H7       DUMH      0.00000       1.00800           0   0.00000       0.00000    
      9195 IM1      156      IM1      LPN21    LPD     -0.474000       0.00000          -1   0.00000       0.00000    
      9196 IM1      157      IM1      C1       CD33G     1.64330       11.6110           0  -1.08100       1.00000    
      9197 IM1      157      IM1      DC1      DRUD     -1.80430      0.400000           0   0.00000       0.00000    
      9198 IM1      157      IM1      H1       HDA3A    0.940000E-01   1.00800           0   0.00000       0.00000    
      9199 IM1      157      IM1      H2       HDA3A    0.940000E-01   1.00800           0   0.00000       0.00000    
      9200 IM1      157      IM1      H3       HDA3A    0.940000E-01   1.00800           0   0.00000       0.00000    
      9201 IM1      157      IM1      N1       ND2R5A    1.92920       13.6070           0  -1.06300       1.30000    
      9202 IM1      157      IM1      DN1      DRUD     -1.78920      0.400000           0   0.00000       0.00000    
      9203 IM1      157      IM1      C2       CD2R5A    1.66810       11.6110           0  -1.37800       1.30000    
      9204 IM1      157      IM1      DC2      DRUD     -2.03710      0.400000           0   0.00000       0.00000    
      9205 IM1      157      IM1      H4       HDR5A    0.150000       1.00800           0   0.00000       0.00000    
      9206 IM1      157      IM1      C3       CD2R5A    2.22510       11.6110           0  -1.37800       1.30000    
      9207 IM1      157      IM1      DC3      DRUD     -2.03710      0.400000           0   0.00000       0.00000    
      9208 IM1      157      IM1      H5       HDR5A    0.530000E-01   1.00800           0   0.00000       0.00000    
      9209 IM1      157      IM1      C4       CD2R5B    1.73480       11.6110           0 -0.868000       1.30000    
      9210 IM1      157      IM1      DC4      DRUD     -1.61680      0.400000           0   0.00000       0.00000    
      9211 IM1      157      IM1      H6       HDR5B    0.730000E-01   1.00800           0   0.00000       0.00000    
      9212 IM1      157      IM1      N2       ND2R5B    1.59050       13.6070           0 -0.840000       1.00000    
      9213 IM1      157      IM1      DN2      DRUD     -1.59050      0.400000           0   0.00000       0.00000    
      9214 IM1      157      IM1      H7       DUMH      0.00000       1.00800           0   0.00000       0.00000    
      9215 IM1      157      IM1      LPN21    LPD     -0.474000       0.00000          -1   0.00000       0.00000    
      9216 IM1      158      IM1      C1       CD33G     1.64330       11.6110           0  -1.08100       1.00000    
      9217 IM1      158      IM1      DC1      DRUD     -1.80430      0.400000           0   0.00000       0.00000    
      9218 IM1      158      IM1      H1       HDA3A    0.940000E-01   1.00800           0   0.00000       0.00000    
      9219 IM1      158      IM1      H2       HDA3A    0.940000E-01   1.00800           0   0.00000       0.00000    
      9220 IM1      158      IM1      H3       HDA3A    0.940000E-01   1.00800           0   0.00000       0.00000    
      9221 IM1      158      IM1      N1       ND2R5A    1.92920       13.6070           0  -1.06300       1.30000    
      9222 IM1      158      IM1      DN1      DRUD     -1.78920      0.400000           0   0.00000       0.00000    
      9223 IM1      158      IM1      C2       CD2R5A    1.66810       11.6110           0  -1.37800       1.30000    
      9224 IM1      158      IM1      DC2      DRUD     -2.03710      0.400000           0   0.00000       0.00000    
      9225 IM1      158      IM1      H4       HDR5A    0.150000       1.00800           0   0.00000       0.00000    
      9226 IM1      158      IM1      C3       CD2R5A    2.22510       11.6110           0  -1.37800       1.30000    
      9227 IM1      158      IM1      DC3      DRUD     -2.03710      0.400000           0   0.00000       0.00000    
      9228 IM1      158      IM1      H5       HDR5A    0.530000E-01   1.00800           0   0.00000       0.00000    
      9229 IM1      158      IM1      C4       CD2R5B    1.73480       11.6110           0 -0.868000       1.30000    
      9230 IM1      158      IM1      DC4      DRUD     -1.61680      0.400000           0   0.00000       0.00000    
      9231 IM1      158      IM1      H6       HDR5B    0.730000E-01   1.00800           0   0.00000       0.00000    
      9232 IM1      158      IM1      N2       ND2R5B    1.59050       13.6070           0 -0.840000       1.00000    
      9233 IM1      158      IM1      DN2      DRUD     -1.59050      0.400000           0   0.00000       0.00000    
      9234 IM1      158      IM1      H7       DUMH      0.00000       1.00800           0   0.00000       0.00000    
      9235 IM1      158      IM1      LPN21    LPD     -0.474000       0.00000          -1   0.00000       0.00000    
      9236 IM1      159      IM1      C1       CD33G     1.64330       11.6110           0  -1.08100       1.00000    
      9237 IM1      159      IM1      DC1      DRUD     -1.80430      0.400000           0   0.00000       0.00000    
      9238 IM1      159      IM1      H1       HDA3A    0.940000E-01   1.00800           0   0.00000       0.00000    
      9239 IM1      159      IM1      H2       HDA3A    0.940000E-01   1.00800           0   0.00000       0.00000    
      9240 IM1      159      IM1      H3       HDA3A    0.940000E-01   1.00800           0   0.00000       0.00000    
      9241 IM1      159      IM1      N1       ND2R5A    1.92920       13.6070           0  -1.06300       1.30000    
      9242 IM1      159      IM1      DN1      DRUD     -1.78920      0.400000           0   0.00000       0.00000    
      9243 IM1      159      IM1      C2       CD2R5A    1.66810       11.6110           0  -1.37800       1.30000    
      9244 IM1      159      IM1      DC2      DRUD     -2.03710      0.400000           0   0.00000       0.00000    
      9245 IM1      159      IM1      H4       HDR5A    0.150000       1.00800           0   0.00000       0.00000    
      9246 IM1      159      IM1      C3       CD2R5A    2.22510       11.6110           0  -1.37800       1.30000    
      9247 IM1      159      IM1      DC3      DRUD     -2.03710      0.400000           0   0.00000       0.00000    
      9248 IM1      159      IM1      H5       HDR5A    0.530000E-01   1.00800           0   0.00000       0.00000    
      9249 IM1      159      IM1      C4       CD2R5B    1.73480       11.6110           0 -0.868000       1.30000    
      9250 IM1      159      IM1      DC4      DRUD     -1.61680      0.400000           0   0.00000       0.00000    
      9251 IM1      159      IM1      H6       HDR5B    0.730000E-01   1.00800           0   0.00000       0.00000    
      9252 IM1      159      IM1      N2       ND2R5B    1.59050       13.6070           0 -0.840000       1.00000    
      9253 IM1      159      IM1      DN2      DRUD     -1.59050      0.400000           0   0.00000       0.00000    
      9254 IM1      159      IM1      H7       DUMH      0.00000       1.00800           0   0.00000       0.00000    
      9255 IM1      159      IM1      LPN21    LPD     -0.474000       0.00000          -1   0.00000       0.00000    
      9256 IM1      160      IM1      C1       CD33G     1.64330       11.6110           0  -1.08100       1.00000    
      9257 IM1      160      IM1      DC1      DRUD     -1.80430      0.400000           0   0.00000       0.00000    
      9258 IM1      160      IM1      H1       HDA3A    0.940000E-01   1.00800           0   0.00000       0.00000    
      9259 IM1      160      IM1      H2       HDA3A    0.940000E-01   1.00800           0   0.00000       0.00000    
      9260 IM1      160      IM1      H3       HDA3A    0.940000E-01   1.00800           0   0.00000       0.00000    
      9261 IM1      160      IM1      N1       ND2R5A    1.92920       13.6070           0  -1.06300       1.30000    
      9262 IM1      160      IM1      DN1      DRUD     -1.78920      0.400000           0   0.00000       0.00000    
      9263 IM1      160      IM1      C2       CD2R5A    1.66810       11.6110           0  -1.37800       1.30000    
      9264 IM1      160      IM1      DC2      DRUD     -2.03710      0.400000           0   0.00000       0.00000    
      9265 IM1      160      IM1      H4       HDR5A    0.150000       1.00800           0   0.00000       0.00000    
      9266 IM1      160      IM1      C3       CD2R5A    2.22510       11.6110           0  -1.37800       1.30000    
      9267 IM1      160      IM1      DC3      DRUD     -2.03710      0.400000           0   0.00000       0.00000    
      9268 IM1      160      IM1      H5       HDR5A    0.530000E-01   1.00800           0   0.00000       0.00000    
      9269 IM1      160      IM1      C4       CD2R5B    1.73480       11.6110           0 -0.868000       1.30000    
      9270 IM1      160      IM1      DC4      DRUD     -1.61680      0.400000           0   0.00000       0.00000    
      9271 IM1      160      IM1      H6       HDR5B    0.730000E-01   1.00800           0   0.00000       0.00000    
      9272 IM1      160      IM1      N2       ND2R5B    1.59050       13.6070           0 -0.840000       1.00000    
      9273 IM1      160      IM1      DN2      DRUD     -1.59050      0.400000           0   0.00000       0.00000    
      9274 IM1      160      IM1      H7       DUMH      0.00000       1.00800           0   0.00000       0.00000    
      9275 IM1      160      IM1      LPN21    LPD     -0.474000       0.00000          -1   0.00000       0.00000    
      9276 IM1      161      IM1      C1       CD33G     1.64330       11.6110           0  -1.08100       1.00000    
      9277 IM1      161      IM1      DC1      DRUD     -1.80430      0.400000           0   0.00000       0.00000    
      9278 IM1      161      IM1      H1       HDA3A    0.940000E-01   1.00800           0   0.00000       0.00000    
      9279 IM1      161      IM1      H2       HDA3A    0.940000E-01   1.00800           0   0.00000       0.00000    
      9280 IM1      161      IM1      H3       HDA3A    0.940000E-01   1.00800           0   0.00000       0.00000    
      9281 IM1      161      IM1      N1       ND2R5A    1.92920       13.6070           0  -1.06300       1.30000    
      9282 IM1      161      IM1      DN1      DRUD     -1.78920      0.400000           0   0.00000       0.00000    
      9283 IM1      161      IM1      C2       CD2R5A    1.66810       11.6110           0  -1.37800       1.30000    
      9284 IM1      161      IM1      DC2      DRUD     -2.03710      0.400000           0   0.00000       0.00000    
      9285 IM1      161      IM1      H4       HDR5A    0.150000       1.00800           0   0.00000       0.00000    
      9286 IM1      161      IM1      C3       CD2R5A    2.22510       11.6110           0  -1.37800       1.30000    
      9287 IM1      161      IM1      DC3      DRUD     -2.03710      0.400000           0   0.00000       0.00000    
      9288 IM1      161      IM1      H5       HDR5A    0.530000E-01   1.00800           0   0.00000       0.00000    
      9289 IM1      161      IM1      C4       CD2R5B    1.73480       11.6110           0 -0.868000       1.30000    
      9290 IM1      161      IM1      DC4      DRUD     -1.61680      0.400000           0   0.00000       0.00000    
      9291 IM1      161      IM1      H6       HDR5B    0.730000E-01   1.00800           0   0.00000       0.00000    
      9292 IM1      161      IM1      N2       ND2R5B    1.59050       13.6070           0 -0.840000       1.00000    
      9293 IM1      161      IM1      DN2      DRUD     -1.59050      0.400000           0   0.00000       0.00000    
      9294 IM1      161      IM1      H7       DUMH      0.00000       1.00800           0   0.00000       0.00000    
      9295 IM1      161      IM1      LPN21    LPD     -0.474000       0.00000          -1   0.00000       0.00000    
      9296 IM1      162      IM1      C1       CD33G     1.64330       11.6110           0  -1.08100       1.00000    
      9297 IM1      162      IM1      DC1      DRUD     -1.80430      0.400000           0   0.00000       0.00000    
      9298 IM1      162      IM1      H1       HDA3A    0.940000E-01   1.00800           0   0.00000       0.00000    
      9299 IM1      162      IM1      H2       HDA3A    0.940000E-01   1.00800           0   0.00000       0.00000    
      9300 IM1      162      IM1      H3       HDA3A    0.940000E-01   1.00800           0   0.00000       0.00000    
      9301 IM1      162      IM1      N1       ND2R5A    1.92920       13.6070           0  -1.06300       1.30000    
      9302 IM1      162      IM1      DN1      DRUD     -1.78920      0.400000           0   0.00000       0.00000    
      9303 IM1      162      IM1      C2       CD2R5A    1.66810       11.6110           0  -1.37800       1.30000    
      9304 IM1      162      IM1      DC2      DRUD     -2.03710      0.400000           0   0.00000       0.00000    
      9305 IM1      162      IM1      H4       HDR5A    0.150000       1.00800           0   0.00000       0.00000    
      9306 IM1      162      IM1      C3       CD2R5A    2.22510       11.6110           0  -1.37800       1.30000    
      9307 IM1      162      IM1      DC3      DRUD     -2.03710      0.400000           0   0.00000       0.00000    
      9308 IM1      162      IM1      H5       HDR5A    0.530000E-01   1.00800           0   0.00000       0.00000    
      9309 IM1      162      IM1      C4       CD2R5B    1.73480       11.6110           0 -0.868000       1.30000    
      9310 IM1      162      IM1      DC4      DRUD     -1.61680      0.400000           0   0.00000       0.00000    
      9311 IM1      162      IM1      H6       HDR5B    0.730000E-01   1.00800           0   0.00000       0.00000    
      9312 IM1      162      IM1      N2       ND2R5B    1.59050       13.6070           0 -0.840000       1.00000    
      9313 IM1      162      IM1      DN2      DRUD     -1.59050      0.400000           0   0.00000       0.00000    
      9314 IM1      162      IM1      H7       DUMH      0.00000       1.00800           0   0.00000       0.00000    
      9315 IM1      162      IM1      LPN21    LPD     -0.474000       0.00000          -1   0.00000       0.00000    
      9316 IM1      163      IM1      C1       CD33G     1.64330       11.6110           0  -1.08100       1.00000    
      9317 IM1      163      IM1      DC1      DRUD     -1.80430      0.400000           0   0.00000       0.00000    
      9318 IM1      163      IM1      H1       HDA3A    0.940000E-01   1.00800           0   0.00000       0.00000    
      9319 IM1      163      IM1      H2       HDA3A    0.940000E-01   1.00800           0   0.00000       0.00000    
      9320 IM1      163      IM1      H3       HDA3A    0.940000E-01   1.00800           0   0.00000       0.00000    
      9321 IM1      163      IM1      N1       ND2R5A    1.92920       13.6070           0  -1.06300       1.30000    
      9322 IM1      163      IM1      DN1      DRUD     -1.78920      0.400000           0   0.00000       0.00000    
      9323 IM1      163      IM1      C2       CD2R5A    1.66810       11.6110           0  -1.37800       1.30000    
      9324 IM1      163      IM1      DC2      DRUD     -2.03710      0.400000           0   0.00000       0.00000    
      9325 IM1      163      IM1      H4       HDR5A    0.150000       1.00800           0   0.00000       0.00000    
      9326 IM1      163      IM1      C3       CD2R5A    2.22510       11.6110           0  -1.37800       1.30000    
      9327 IM1      163      IM1      DC3      DRUD     -2.03710      0.400000           0   0.00000       0.00000    
      9328 IM1      163      IM1      H5       HDR5A    0.530000E-01   1.00800           0   0.00000       0.00000    
      9329 IM1      163      IM1      C4       CD2R5B    1.73480       11.6110           0 -0.868000       1.30000    
      9330 IM1      163      IM1      DC4      DRUD     -1.61680      0.400000           0   0.00000       0.00000    
      9331 IM1      163      IM1      H6       HDR5B    0.730000E-01   1.00800           0   0.00000       0.00000    
      9332 IM1      163      IM1      N2       ND2R5B    1.59050       13.6070           0 -0.840000       1.00000    
      9333 IM1      163      IM1      DN2      DRUD     -1.59050      0.400000           0   0.00000       0.00000    
      9334 IM1      163      IM1      H7       DUMH      0.00000       1.00800           0   0.00000       0.00000    
      9335 IM1      163      IM1      LPN21    LPD     -0.474000       0.00000          -1   0.00000       0.00000    
      9336 IM1      164      IM1      C1       CD33G     1.64330       11.6110           0  -1.08100       1.00000    
      9337 IM1      164      IM1      DC1      DRUD     -1.80430      0.400000           0   0.00000       0.00000    
      9338 IM1      164      IM1      H1       HDA3A    0.940000E-01   1.00800           0   0.00000       0.00000    
      9339 IM1      164      IM1      H2       HDA3A    0.940000E-01   1.00800           0   0.00000       0.00000    
      9340 IM1      164      IM1      H3       HDA3A    0.940000E-01   1.00800           0   0.00000       0.00000    
      9341 IM1      164      IM1      N1       ND2R5A    1.92920       13.6070           0  -1.06300       1.30000    
      9342 IM1      164      IM1      DN1      DRUD     -1.78920      0.400000           0   0.00000       0.00000    
      9343 IM1      164      IM1      C2       CD2R5A    1.66810       11.6110           0  -1.37800       1.30000    
      9344 IM1      164      IM1      DC2      DRUD     -2.03710      0.400000           0   0.00000       0.00000    
      9345 IM1      164      IM1      H4       HDR5A    0.150000       1.00800           0   0.00000       0.00000    
      9346 IM1      164      IM1      C3       CD2R5A    2.22510       11.6110           0  -1.37800       1.30000    
      9347 IM1      164      IM1      DC3      DRUD     -2.03710      0.400000           0   0.00000       0.00000    
      9348 IM1      164      IM1      H5       HDR5A    0.530000E-01   1.00800           0   0.00000       0.00000    
      9349 IM1      164      IM1      C4       CD2R5B    1.73480       11.6110           0 -0.868000       1.30000    
      9350 IM1      164      IM1      DC4      DRUD     -1.61680      0.400000           0   0.00000       0.00000    
      9351 IM1      164      IM1      H6       HDR5B    0.730000E-01   1.00800           0   0.00000       0.00000    
      9352 IM1      164      IM1      N2       ND2R5B    1.59050       13.6070           0 -0.840000       1.00000    
      9353 IM1      164      IM1      DN2      DRUD     -1.59050      0.400000           0   0.00000       0.00000    
      9354 IM1      164      IM1      H7       DUMH      0.00000       1.00800           0   0.00000       0.00000    
      9355 IM1      164      IM1      LPN21    LPD     -0.474000       0.00000          -1   0.00000       0.00000    
      9356 IM1      165      IM1      C1       CD33G     1.64330       11.6110           0  -1.08100       1.00000    
      9357 IM1      165      IM1      DC1      DRUD     -1.80430      0.400000           0   0.00000       0.00000    
      9358 IM1      165      IM1      H1       HDA3A    0.940000E-01   1.00800           0   0.00000       0.00000    
      9359 IM1      165      IM1      H2       HDA3A    0.940000E-01   1.00800           0   0.00000       0.00000    
      9360 IM1      165      IM1      H3       HDA3A    0.940000E-01   1.00800           0   0.00000       0.00000    
      9361 IM1      165      IM1      N1       ND2R5A    1.92920       13.6070           0  -1.06300       1.30000    
      9362 IM1      165      IM1      DN1      DRUD     -1.78920      0.400000           0   0.00000       0.00000    
      9363 IM1      165      IM1      C2       CD2R5A    1.66810       11.6110           0  -1.37800       1.30000    
      9364 IM1      165      IM1      DC2      DRUD     -2.03710      0.400000           0   0.00000       0.00000    
      9365 IM1      165      IM1      H4       HDR5A    0.150000       1.00800           0   0.00000       0.00000    
      9366 IM1      165      IM1      C3       CD2R5A    2.22510       11.6110           0  -1.37800       1.30000    
      9367 IM1      165      IM1      DC3      DRUD     -2.03710      0.400000           0   0.00000       0.00000    
      9368 IM1      165      IM1      H5       HDR5A    0.530000E-01   1.00800           0   0.00000       0.00000    
      9369 IM1      165      IM1      C4       CD2R5B    1.73480       11.6110           0 -0.868000       1.30000    
      9370 IM1      165      IM1      DC4      DRUD     -1.61680      0.400000           0   0.00000       0.00000    
      9371 IM1      165      IM1      H6       HDR5B    0.730000E-01   1.00800           0   0.00000       0.00000    
      9372 IM1      165      IM1      N2       ND2R5B    1.59050       13.6070           0 -0.840000       1.00000    
      9373 IM1      165      IM1      DN2      DRUD     -1.59050      0.400000           0   0.00000       0.00000    
      9374 IM1      165      IM1      H7       DUMH      0.00000       1.00800           0   0.00000       0.00000    
      9375 IM1      165      IM1      LPN21    LPD     -0.474000       0.00000          -1   0.00000       0.00000    
      9376 IM1      166      IM1      C1       CD33G     1.64330       11.6110           0  -1.08100       1.00000    
      9377 IM1      166      IM1      DC1      DRUD     -1.80430      0.400000           0   0.00000       0.00000    
      9378 IM1      166      IM1      H1       HDA3A    0.940000E-01   1.00800           0   0.00000       0.00000    
      9379 IM1      166      IM1      H2       HDA3A    0.940000E-01   1.00800           0   0.00000       0.00000    
      9380 IM1      166      IM1      H3       HDA3A    0.940000E-01   1.00800           0   0.00000       0.00000    
      9381 IM1      166      IM1      N1       ND2R5A    1.92920       13.6070           0  -1.06300       1.30000    
      9382 IM1      166      IM1      DN1      DRUD     -1.78920      0.400000           0   0.00000       0.00000    
      9383 IM1      166      IM1      C2       CD2R5A    1.66810       11.6110           0  -1.37800       1.30000    
      9384 IM1      166      IM1      DC2      DRUD     -2.03710      0.400000           0   0.00000       0.00000    
      9385 IM1      166      IM1      H4       HDR5A    0.150000       1.00800           0   0.00000       0.00000    
      9386 IM1      166      IM1      C3       CD2R5A    2.22510       11.6110           0  -1.37800       1.30000    
      9387 IM1      166      IM1      DC3      DRUD     -2.03710      0.400000           0   0.00000       0.00000    
      9388 IM1      166      IM1      H5       HDR5A    0.530000E-01   1.00800           0   0.00000       0.00000    
      9389 IM1      166      IM1      C4       CD2R5B    1.73480       11.6110           0 -0.868000       1.30000    
      9390 IM1      166      IM1      DC4      DRUD     -1.61680      0.400000           0   0.00000       0.00000    
      9391 IM1      166      IM1      H6       HDR5B    0.730000E-01   1.00800           0   0.00000       0.00000    
      9392 IM1      166      IM1      N2       ND2R5B    1.59050       13.6070           0 -0.840000       1.00000    
      9393 IM1      166      IM1      DN2      DRUD     -1.59050      0.400000           0   0.00000       0.00000    
      9394 IM1      166      IM1      H7       DUMH      0.00000       1.00800           0   0.00000       0.00000    
      9395 IM1      166      IM1      LPN21    LPD     -0.474000       0.00000          -1   0.00000       0.00000    
      9396 IM1      167      IM1      C1       CD33G     1.64330       11.6110           0  -1.08100       1.00000    
      9397 IM1      167      IM1      DC1      DRUD     -1.80430      0.400000           0   0.00000       0.00000    
      9398 IM1      167      IM1      H1       HDA3A    0.940000E-01   1.00800           0   0.00000       0.00000    
      9399 IM1      167      IM1      H2       HDA3A    0.940000E-01   1.00800           0   0.00000       0.00000    
      9400 IM1      167      IM1      H3       HDA3A    0.940000E-01   1.00800           0   0.00000       0.00000    
      9401 IM1      167      IM1      N1       ND2R5A    1.92920       13.6070           0  -1.06300       1.30000    
      9402 IM1      167      IM1      DN1      DRUD     -1.78920      0.400000           0   0.00000       0.00000    
      9403 IM1      167      IM1      C2       CD2R5A    1.66810       11.6110           0  -1.37800       1.30000    
      9404 IM1      167      IM1      DC2      DRUD     -2.03710      0.400000           0   0.00000       0.00000    
      9405 IM1      167      IM1      H4       HDR5A    0.150000       1.00800           0   0.00000       0.00000    
      9406 IM1      167      IM1      C3       CD2R5A    2.22510       11.6110           0  -1.37800       1.30000    
      9407 IM1      167      IM1      DC3      DRUD     -2.03710      0.400000           0   0.00000       0.00000    
      9408 IM1      167      IM1      H5       HDR5A    0.530000E-01   1.00800           0   0.00000       0.00000    
      9409 IM1      167      IM1      C4       CD2R5B    1.73480       11.6110           0 -0.868000       1.30000    
      9410 IM1      167      IM1      DC4      DRUD     -1.61680      0.400000           0   0.00000       0.00000    
      9411 IM1      167      IM1      H6       HDR5B    0.730000E-01   1.00800           0   0.00000       0.00000    
      9412 IM1      167      IM1      N2       ND2R5B    1.59050       13.6070           0 -0.840000       1.00000    
      9413 IM1      167      IM1      DN2      DRUD     -1.59050      0.400000           0   0.00000       0.00000    
      9414 IM1      167      IM1      H7       DUMH      0.00000       1.00800           0   0.00000       0.00000    
      9415 IM1      167      IM1      LPN21    LPD     -0.474000       0.00000          -1   0.00000       0.00000    
      9416 IM1      168      IM1      C1       CD33G     1.64330       11.6110           0  -1.08100       1.00000    
      9417 IM1      168      IM1      DC1      DRUD     -1.80430      0.400000           0   0.00000       0.00000    
      9418 IM1      168      IM1      H1       HDA3A    0.940000E-01   1.00800           0   0.00000       0.00000    
      9419 IM1      168      IM1      H2       HDA3A    0.940000E-01   1.00800           0   0.00000       0.00000    
      9420 IM1      168      IM1      H3       HDA3A    0.940000E-01   1.00800           0   0.00000       0.00000    
      9421 IM1      168      IM1      N1       ND2R5A    1.92920       13.6070           0  -1.06300       1.30000    
      9422 IM1      168      IM1      DN1      DRUD     -1.78920      0.400000           0   0.00000       0.00000    
      9423 IM1      168      IM1      C2       CD2R5A    1.66810       11.6110           0  -1.37800       1.30000    
      9424 IM1      168      IM1      DC2      DRUD     -2.03710      0.400000           0   0.00000       0.00000    
      9425 IM1      168      IM1      H4       HDR5A    0.150000       1.00800           0   0.00000       0.00000    
      9426 IM1      168      IM1      C3       CD2R5A    2.22510       11.6110           0  -1.37800       1.30000    
      9427 IM1      168      IM1      DC3      DRUD     -2.03710      0.400000           0   0.00000       0.00000    
      9428 IM1      168      IM1      H5       HDR5A    0.530000E-01   1.00800           0   0.00000       0.00000    
      9429 IM1      168      IM1      C4       CD2R5B    1.73480       11.6110           0 -0.868000       1.30000    
      9430 IM1      168      IM1      DC4      DRUD     -1.61680      0.400000           0   0.00000       0.00000    
      9431 IM1      168      IM1      H6       HDR5B    0.730000E-01   1.00800           0   0.00000       0.00000    
      9432 IM1      168      IM1      N2       ND2R5B    1.59050       13.6070           0 -0.840000       1.00000    
      9433 IM1      168      IM1      DN2      DRUD     -1.59050      0.400000           0   0.00000       0.00000    
      9434 IM1      168      IM1      H7       DUMH      0.00000       1.00800           0   0.00000       0.00000    
      9435 IM1      168      IM1      LPN21    LPD     -0.474000       0.00000          -1   0.00000       0.00000    
      9436 IM1      169      IM1      C1       CD33G     1.64330       11.6110           0  -1.08100       1.00000    
      9437 IM1      169      IM1      DC1      DRUD     -1.80430      0.400000           0   0.00000       0.00000    
      9438 IM1      169      IM1      H1       HDA3A    0.940000E-01   1.00800           0   0.00000       0.00000    
      9439 IM1      169      IM1      H2       HDA3A    0.940000E-01   1.00800           0   0.00000       0.00000    
      9440 IM1      169      IM1      H3       HDA3A    0.940000E-01   1.00800           0   0.00000       0.00000    
      9441 IM1      169      IM1      N1       ND2R5A    1.92920       13.6070           0  -1.06300       1.30000    
      9442 IM1      169      IM1      DN1      DRUD     -1.78920      0.400000           0   0.00000       0.00000    
      9443 IM1      169      IM1      C2       CD2R5A    1.66810       11.6110           0  -1.37800       1.30000    
      9444 IM1      169      IM1      DC2      DRUD     -2.03710      0.400000           0   0.00000       0.00000    
      9445 IM1      169      IM1      H4       HDR5A    0.150000       1.00800           0   0.00000       0.00000    
      9446 IM1      169      IM1      C3       CD2R5A    2.22510       11.6110           0  -1.37800       1.30000    
      9447 IM1      169      IM1      DC3      DRUD     -2.03710      0.400000           0   0.00000       0.00000    
      9448 IM1      169      IM1      H5       HDR5A    0.530000E-01   1.00800           0   0.00000       0.00000    
      9449 IM1      169      IM1      C4       CD2R5B    1.73480       11.6110           0 -0.868000       1.30000    
      9450 IM1      169      IM1      DC4      DRUD     -1.61680      0.400000           0   0.00000       0.00000    
      9451 IM1      169      IM1      H6       HDR5B    0.730000E-01   1.00800           0   0.00000       0.00000    
      9452 IM1      169      IM1      N2       ND2R5B    1.59050       13.6070           0 -0.840000       1.00000    
      9453 IM1      169      IM1      DN2      DRUD     -1.59050      0.400000           0   0.00000       0.00000    
      9454 IM1      169      IM1      H7       DUMH      0.00000       1.00800           0   0.00000       0.00000    
      9455 IM1      169      IM1      LPN21    LPD     -0.474000       0.00000          -1   0.00000       0.00000    
      9456 IM1      170      IM1      C1       CD33G     1.64330       11.6110           0  -1.08100       1.00000    
      9457 IM1      170      IM1      DC1      DRUD     -1.80430      0.400000           0   0.00000       0.00000    
      9458 IM1      170      IM1      H1       HDA3A    0.940000E-01   1.00800           0   0.00000       0.00000    
      9459 IM1      170      IM1      H2       HDA3A    0.940000E-01   1.00800           0   0.00000       0.00000    
      9460 IM1      170      IM1      H3       HDA3A    0.940000E-01   1.00800           0   0.00000       0.00000    
      9461 IM1      170      IM1      N1       ND2R5A    1.92920       13.6070           0  -1.06300       1.30000    
      9462 IM1      170      IM1      DN1      DRUD     -1.78920      0.400000           0   0.00000       0.00000    
      9463 IM1      170      IM1      C2       CD2R5A    1.66810       11.6110           0  -1.37800       1.30000    
      9464 IM1      170      IM1      DC2      DRUD     -2.03710      0.400000           0   0.00000       0.00000    
      9465 IM1      170      IM1      H4       HDR5A    0.150000       1.00800           0   0.00000       0.00000    
      9466 IM1      170      IM1      C3       CD2R5A    2.22510       11.6110           0  -1.37800       1.30000    
      9467 IM1      170      IM1      DC3      DRUD     -2.03710      0.400000           0   0.00000       0.00000    
      9468 IM1      170      IM1      H5       HDR5A    0.530000E-01   1.00800           0   0.00000       0.00000    
      9469 IM1      170      IM1      C4       CD2R5B    1.73480       11.6110           0 -0.868000       1.30000    
      9470 IM1      170      IM1      DC4      DRUD     -1.61680      0.400000           0   0.00000       0.00000    
      9471 IM1      170      IM1      H6       HDR5B    0.730000E-01   1.00800           0   0.00000       0.00000    
      9472 IM1      170      IM1      N2       ND2R5B    1.59050       13.6070           0 -0.840000       1.00000    
      9473 IM1      170      IM1      DN2      DRUD     -1.59050      0.400000           0   0.00000       0.00000    
      9474 IM1      170      IM1      H7       DUMH      0.00000       1.00800           0   0.00000       0.00000    
      9475 IM1      170      IM1      LPN21    LPD     -0.474000       0.00000          -1   0.00000       0.00000    
      9476 IM1      171      IM1      C1       CD33G     1.64330       11.6110           0  -1.08100       1.00000    
      9477 IM1      171      IM1      DC1      DRUD     -1.80430      0.400000           0   0.00000       0.00000    
      9478 IM1      171      IM1      H1       HDA3A    0.940000E-01   1.00800           0   0.00000       0.00000    
      9479 IM1      171      IM1      H2       HDA3A    0.940000E-01   1.00800           0   0.00000       0.00000    
      9480 IM1      171      IM1      H3       HDA3A    0.940000E-01   1.00800           0   0.00000       0.00000    
      9481 IM1      171      IM1      N1       ND2R5A    1.92920       13.6070           0  -1.06300       1.30000    
      9482 IM1      171      IM1      DN1      DRUD     -1.78920      0.400000           0   0.00000       0.00000    
      9483 IM1      171      IM1      C2       CD2R5A    1.66810       11.6110           0  -1.37800       1.30000    
      9484 IM1      171      IM1      DC2      DRUD     -2.03710      0.400000           0   0.00000       0.00000    
      9485 IM1      171      IM1      H4       HDR5A    0.150000       1.00800           0   0.00000       0.00000    
      9486 IM1      171      IM1      C3       CD2R5A    2.22510       11.6110           0  -1.37800       1.30000    
      9487 IM1      171      IM1      DC3      DRUD     -2.03710      0.400000           0   0.00000       0.00000    
      9488 IM1      171      IM1      H5       HDR5A    0.530000E-01   1.00800           0   0.00000       0.00000    
      9489 IM1      171      IM1      C4       CD2R5B    1.73480       11.6110           0 -0.868000       1.30000    
      9490 IM1      171      IM1      DC4      DRUD     -1.61680      0.400000           0   0.00000       0.00000    
      9491 IM1      171      IM1      H6       HDR5B    0.730000E-01   1.00800           0   0.00000       0.00000    
      9492 IM1      171      IM1      N2       ND2R5B    1.59050       13.6070           0 -0.840000       1.00000    
      9493 IM1      171      IM1      DN2      DRUD     -1.59050      0.400000           0   0.00000       0.00000    
      9494 IM1      171      IM1      H7       DUMH      0.00000       1.00800           0   0.00000       0.00000    
      9495 IM1      171      IM1      LPN21    LPD     -0.474000       0.00000          -1   0.00000       0.00000    
      9496 IM1      172      IM1      C1       CD33G     1.64330       11.6110           0  -1.08100       1.00000    
      9497 IM1      172      IM1      DC1      DRUD     -1.80430      0.400000           0   0.00000       0.00000    
      9498 IM1      172      IM1      H1       HDA3A    0.940000E-01   1.00800           0   0.00000       0.00000    
      9499 IM1      172      IM1      H2       HDA3A    0.940000E-01   1.00800           0   0.00000       0.00000    
      9500 IM1      172      IM1      H3       HDA3A    0.940000E-01   1.00800           0   0.00000       0.00000    
      9501 IM1      172      IM1      N1       ND2R5A    1.92920       13.6070           0  -1.06300       1.30000    
      9502 IM1      172      IM1      DN1      DRUD     -1.78920      0.400000           0   0.00000       0.00000    
      9503 IM1      172      IM1      C2       CD2R5A    1.66810       11.6110           0  -1.37800       1.30000    
      9504 IM1      172      IM1      DC2      DRUD     -2.03710      0.400000           0   0.00000       0.00000    
      9505 IM1      172      IM1      H4       HDR5A    0.150000       1.00800           0   0.00000       0.00000    
      9506 IM1      172      IM1      C3       CD2R5A    2.22510       11.6110           0  -1.37800       1.30000    
      9507 IM1      172      IM1      DC3      DRUD     -2.03710      0.400000           0   0.00000       0.00000    
      9508 IM1      172      IM1      H5       HDR5A    0.530000E-01   1.00800           0   0.00000       0.00000    
      9509 IM1      172      IM1      C4       CD2R5B    1.73480       11.6110           0 -0.868000       1.30000    
      9510 IM1      172      IM1      DC4      DRUD     -1.61680      0.400000           0   0.00000       0.00000    
      9511 IM1      172      IM1      H6       HDR5B    0.730000E-01   1.00800           0   0.00000       0.00000    
      9512 IM1      172      IM1      N2       ND2R5B    1.59050       13.6070           0 -0.840000       1.00000    
      9513 IM1      172      IM1      DN2      DRUD     -1.59050      0.400000           0   0.00000       0.00000    
      9514 IM1      172      IM1      H7       DUMH      0.00000       1.00800           0   0.00000       0.00000    
      9515 IM1      172      IM1      LPN21    LPD     -0.474000       0.00000          -1   0.00000       0.00000    
      9516 IM1      173      IM1      C1       CD33G     1.64330       11.6110           0  -1.08100       1.00000    
      9517 IM1      173      IM1      DC1      DRUD     -1.80430      0.400000           0   0.00000       0.00000    
      9518 IM1      173      IM1      H1       HDA3A    0.940000E-01   1.00800           0   0.00000       0.00000    
      9519 IM1      173      IM1      H2       HDA3A    0.940000E-01   1.00800           0   0.00000       0.00000    
      9520 IM1      173      IM1      H3       HDA3A    0.940000E-01   1.00800           0   0.00000       0.00000    
      9521 IM1      173      IM1      N1       ND2R5A    1.92920       13.6070           0  -1.06300       1.30000    
      9522 IM1      173      IM1      DN1      DRUD     -1.78920      0.400000           0   0.00000       0.00000    
      9523 IM1      173      IM1      C2       CD2R5A    1.66810       11.6110           0  -1.37800       1.30000    
      9524 IM1      173      IM1      DC2      DRUD     -2.03710      0.400000           0   0.00000       0.00000    
      9525 IM1      173      IM1      H4       HDR5A    0.150000       1.00800           0   0.00000       0.00000    
      9526 IM1      173      IM1      C3       CD2R5A    2.22510       11.6110           0  -1.37800       1.30000    
      9527 IM1      173      IM1      DC3      DRUD     -2.03710      0.400000           0   0.00000       0.00000    
      9528 IM1      173      IM1      H5       HDR5A    0.530000E-01   1.00800           0   0.00000       0.00000    
      9529 IM1      173      IM1      C4       CD2R5B    1.73480       11.6110           0 -0.868000       1.30000    
      9530 IM1      173      IM1      DC4      DRUD     -1.61680      0.400000           0   0.00000       0.00000    
      9531 IM1      173      IM1      H6       HDR5B    0.730000E-01   1.00800           0   0.00000       0.00000    
      9532 IM1      173      IM1      N2       ND2R5B    1.59050       13.6070           0 -0.840000       1.00000    
      9533 IM1      173      IM1      DN2      DRUD     -1.59050      0.400000           0   0.00000       0.00000    
      9534 IM1      173      IM1      H7       DUMH      0.00000       1.00800           0   0.00000       0.00000    
      9535 IM1      173      IM1      LPN21    LPD     -0.474000       0.00000          -1   0.00000       0.00000    
      9536 IM1      174      IM1      C1       CD33G     1.64330       11.6110           0  -1.08100       1.00000    
      9537 IM1      174      IM1      DC1      DRUD     -1.80430      0.400000           0   0.00000       0.00000    
      9538 IM1      174      IM1      H1       HDA3A    0.940000E-01   1.00800           0   0.00000       0.00000    
      9539 IM1      174      IM1      H2       HDA3A    0.940000E-01   1.00800           0   0.00000       0.00000    
      9540 IM1      174      IM1      H3       HDA3A    0.940000E-01   1.00800           0   0.00000       0.00000    
      9541 IM1      174      IM1      N1       ND2R5A    1.92920       13.6070           0  -1.06300       1.30000    
      9542 IM1      174      IM1      DN1      DRUD     -1.78920      0.400000           0   0.00000       0.00000    
      9543 IM1      174      IM1      C2       CD2R5A    1.66810       11.6110           0  -1.37800       1.30000    
      9544 IM1      174      IM1      DC2      DRUD     -2.03710      0.400000           0   0.00000       0.00000    
      9545 IM1      174      IM1      H4       HDR5A    0.150000       1.00800           0   0.00000       0.00000    
      9546 IM1      174      IM1      C3       CD2R5A    2.22510       11.6110           0  -1.37800       1.30000    
      9547 IM1      174      IM1      DC3      DRUD     -2.03710      0.400000           0   0.00000       0.00000    
      9548 IM1      174      IM1      H5       HDR5A    0.530000E-01   1.00800           0   0.00000       0.00000    
      9549 IM1      174      IM1      C4       CD2R5B    1.73480       11.6110           0 -0.868000       1.30000    
      9550 IM1      174      IM1      DC4      DRUD     -1.61680      0.400000           0   0.00000       0.00000    
      9551 IM1      174      IM1      H6       HDR5B    0.730000E-01   1.00800           0   0.00000       0.00000    
      9552 IM1      174      IM1      N2       ND2R5B    1.59050       13.6070           0 -0.840000       1.00000    
      9553 IM1      174      IM1      DN2      DRUD     -1.59050      0.400000           0   0.00000       0.00000    
      9554 IM1      174      IM1      H7       DUMH      0.00000       1.00800           0   0.00000       0.00000    
      9555 IM1      174      IM1      LPN21    LPD     -0.474000       0.00000          -1   0.00000       0.00000    
      9556 IM1      175      IM1      C1       CD33G     1.64330       11.6110           0  -1.08100       1.00000    
      9557 IM1      175      IM1      DC1      DRUD     -1.80430      0.400000           0   0.00000       0.00000    
      9558 IM1      175      IM1      H1       HDA3A    0.940000E-01   1.00800           0   0.00000       0.00000    
      9559 IM1      175      IM1      H2       HDA3A    0.940000E-01   1.00800           0   0.00000       0.00000    
      9560 IM1      175      IM1      H3       HDA3A    0.940000E-01   1.00800           0   0.00000       0.00000    
      9561 IM1      175      IM1      N1       ND2R5A    1.92920       13.6070           0  -1.06300       1.30000    
      9562 IM1      175      IM1      DN1      DRUD     -1.78920      0.400000           0   0.00000       0.00000    
      9563 IM1      175      IM1      C2       CD2R5A    1.66810       11.6110           0  -1.37800       1.30000    
      9564 IM1      175      IM1      DC2      DRUD     -2.03710      0.400000           0   0.00000       0.00000    
      9565 IM1      175      IM1      H4       HDR5A    0.150000       1.00800           0   0.00000       0.00000    
      9566 IM1      175      IM1      C3       CD2R5A    2.22510       11.6110           0  -1.37800       1.30000    
      9567 IM1      175      IM1      DC3      DRUD     -2.03710      0.400000           0   0.00000       0.00000    
      9568 IM1      175      IM1      H5       HDR5A    0.530000E-01   1.00800           0   0.00000       0.00000    
      9569 IM1      175      IM1      C4       CD2R5B    1.73480       11.6110           0 -0.868000       1.30000    
      9570 IM1      175      IM1      DC4      DRUD     -1.61680      0.400000           0   0.00000       0.00000    
      9571 IM1      175      IM1      H6       HDR5B    0.730000E-01   1.00800           0   0.00000       0.00000    
      9572 IM1      175      IM1      N2       ND2R5B    1.59050       13.6070           0 -0.840000       1.00000    
      9573 IM1      175      IM1      DN2      DRUD     -1.59050      0.400000           0   0.00000       0.00000    
      9574 IM1      175      IM1      H7       DUMH      0.00000       1.00800           0   0.00000       0.00000    
      9575 IM1      175      IM1      LPN21    LPD     -0.474000       0.00000          -1   0.00000       0.00000    
      9576 IM1      176      IM1      C1       CD33G     1.64330       11.6110           0  -1.08100       1.00000    
      9577 IM1      176      IM1      DC1      DRUD     -1.80430      0.400000           0   0.00000       0.00000    
      9578 IM1      176      IM1      H1       HDA3A    0.940000E-01   1.00800           0   0.00000       0.00000    
      9579 IM1      176      IM1      H2       HDA3A    0.940000E-01   1.00800           0   0.00000       0.00000    
      9580 IM1      176      IM1      H3       HDA3A    0.940000E-01   1.00800           0   0.00000       0.00000    
      9581 IM1      176      IM1      N1       ND2R5A    1.92920       13.6070           0  -1.06300       1.30000    
      9582 IM1      176      IM1      DN1      DRUD     -1.78920      0.400000           0   0.00000       0.00000    
      9583 IM1      176      IM1      C2       CD2R5A    1.66810       11.6110           0  -1.37800       1.30000    
      9584 IM1      176      IM1      DC2      DRUD     -2.03710      0.400000           0   0.00000       0.00000    
      9585 IM1      176      IM1      H4       HDR5A    0.150000       1.00800           0   0.00000       0.00000    
      9586 IM1      176      IM1      C3       CD2R5A    2.22510       11.6110           0  -1.37800       1.30000    
      9587 IM1      176      IM1      DC3      DRUD     -2.03710      0.400000           0   0.00000       0.00000    
      9588 IM1      176      IM1      H5       HDR5A    0.530000E-01   1.00800           0   0.00000       0.00000    
      9589 IM1      176      IM1      C4       CD2R5B    1.73480       11.6110           0 -0.868000       1.30000    
      9590 IM1      176      IM1      DC4      DRUD     -1.61680      0.400000           0   0.00000       0.00000    
      9591 IM1      176      IM1      H6       HDR5B    0.730000E-01   1.00800           0   0.00000       0.00000    
      9592 IM1      176      IM1      N2       ND2R5B    1.59050       13.6070           0 -0.840000       1.00000    
      9593 IM1      176      IM1      DN2      DRUD     -1.59050      0.400000           0   0.00000       0.00000    
      9594 IM1      176      IM1      H7       DUMH      0.00000       1.00800           0   0.00000       0.00000    
      9595 IM1      176      IM1      LPN21    LPD     -0.474000       0.00000          -1   0.00000       0.00000    
      9596 IM1      177      IM1      C1       CD33G     1.64330       11.6110           0  -1.08100       1.00000    
      9597 IM1      177      IM1      DC1      DRUD     -1.80430      0.400000           0   0.00000       0.00000    
      9598 IM1      177      IM1      H1       HDA3A    0.940000E-01   1.00800           0   0.00000       0.00000    
      9599 IM1      177      IM1      H2       HDA3A    0.940000E-01   1.00800           0   0.00000       0.00000    
      9600 IM1      177      IM1      H3       HDA3A    0.940000E-01   1.00800           0   0.00000       0.00000    
      9601 IM1      177      IM1      N1       ND2R5A    1.92920       13.6070           0  -1.06300       1.30000    
      9602 IM1      177      IM1      DN1      DRUD     -1.78920      0.400000           0   0.00000       0.00000    
      9603 IM1      177      IM1      C2       CD2R5A    1.66810       11.6110           0  -1.37800       1.30000    
      9604 IM1      177      IM1      DC2      DRUD     -2.03710      0.400000           0   0.00000       0.00000    
      9605 IM1      177      IM1      H4       HDR5A    0.150000       1.00800           0   0.00000       0.00000    
      9606 IM1      177      IM1      C3       CD2R5A    2.22510       11.6110           0  -1.37800       1.30000    
      9607 IM1      177      IM1      DC3      DRUD     -2.03710      0.400000           0   0.00000       0.00000    
      9608 IM1      177      IM1      H5       HDR5A    0.530000E-01   1.00800           0   0.00000       0.00000    
      9609 IM1      177      IM1      C4       CD2R5B    1.73480       11.6110           0 -0.868000       1.30000    
      9610 IM1      177      IM1      DC4      DRUD     -1.61680      0.400000           0   0.00000       0.00000    
      9611 IM1      177      IM1      H6       HDR5B    0.730000E-01   1.00800           0   0.00000       0.00000    
      9612 IM1      177      IM1      N2       ND2R5B    1.59050       13.6070           0 -0.840000       1.00000    
      9613 IM1      177      IM1      DN2      DRUD     -1.59050      0.400000           0   0.00000       0.00000    
      9614 IM1      177      IM1      H7       DUMH      0.00000       1.00800           0   0.00000       0.00000    
      9615 IM1      177      IM1      LPN21    LPD     -0.474000       0.00000          -1   0.00000       0.00000    
      9616 IM1      178      IM1      C1       CD33G     1.64330       11.6110           0  -1.08100       1.00000    
      9617 IM1      178      IM1      DC1      DRUD     -1.80430      0.400000           0   0.00000       0.00000    
      9618 IM1      178      IM1      H1       HDA3A    0.940000E-01   1.00800           0   0.00000       0.00000    
      9619 IM1      178      IM1      H2       HDA3A    0.940000E-01   1.00800           0   0.00000       0.00000    
      9620 IM1      178      IM1      H3       HDA3A    0.940000E-01   1.00800           0   0.00000       0.00000    
      9621 IM1      178      IM1      N1       ND2R5A    1.92920       13.6070           0  -1.06300       1.30000    
      9622 IM1      178      IM1      DN1      DRUD     -1.78920      0.400000           0   0.00000       0.00000    
      9623 IM1      178      IM1      C2       CD2R5A    1.66810       11.6110           0  -1.37800       1.30000    
      9624 IM1      178      IM1      DC2      DRUD     -2.03710      0.400000           0   0.00000       0.00000    
      9625 IM1      178      IM1      H4       HDR5A    0.150000       1.00800           0   0.00000       0.00000    
      9626 IM1      178      IM1      C3       CD2R5A    2.22510       11.6110           0  -1.37800       1.30000    
      9627 IM1      178      IM1      DC3      DRUD     -2.03710      0.400000           0   0.00000       0.00000    
      9628 IM1      178      IM1      H5       HDR5A    0.530000E-01   1.00800           0   0.00000       0.00000    
      9629 IM1      178      IM1      C4       CD2R5B    1.73480       11.6110           0 -0.868000       1.30000    
      9630 IM1      178      IM1      DC4      DRUD     -1.61680      0.400000           0   0.00000       0.00000    
      9631 IM1      178      IM1      H6       HDR5B    0.730000E-01   1.00800           0   0.00000       0.00000    
      9632 IM1      178      IM1      N2       ND2R5B    1.59050       13.6070           0 -0.840000       1.00000    
      9633 IM1      178      IM1      DN2      DRUD     -1.59050      0.400000           0   0.00000       0.00000    
      9634 IM1      178      IM1      H7       DUMH      0.00000       1.00800           0   0.00000       0.00000    
      9635 IM1      178      IM1      LPN21    LPD     -0.474000       0.00000          -1   0.00000       0.00000    
      9636 IM1      179      IM1      C1       CD33G     1.64330       11.6110           0  -1.08100       1.00000    
      9637 IM1      179      IM1      DC1      DRUD     -1.80430      0.400000           0   0.00000       0.00000    
      9638 IM1      179      IM1      H1       HDA3A    0.940000E-01   1.00800           0   0.00000       0.00000    
      9639 IM1      179      IM1      H2       HDA3A    0.940000E-01   1.00800           0   0.00000       0.00000    
      9640 IM1      179      IM1      H3       HDA3A    0.940000E-01   1.00800           0   0.00000       0.00000    
      9641 IM1      179      IM1      N1       ND2R5A    1.92920       13.6070           0  -1.06300       1.30000    
      9642 IM1      179      IM1      DN1      DRUD     -1.78920      0.400000           0   0.00000       0.00000    
      9643 IM1      179      IM1      C2       CD2R5A    1.66810       11.6110           0  -1.37800       1.30000    
      9644 IM1      179      IM1      DC2      DRUD     -2.03710      0.400000           0   0.00000       0.00000    
      9645 IM1      179      IM1      H4       HDR5A    0.150000       1.00800           0   0.00000       0.00000    
      9646 IM1      179      IM1      C3       CD2R5A    2.22510       11.6110           0  -1.37800       1.30000    
      9647 IM1      179      IM1      DC3      DRUD     -2.03710      0.400000           0   0.00000       0.00000    
      9648 IM1      179      IM1      H5       HDR5A    0.530000E-01   1.00800           0   0.00000       0.00000    
      9649 IM1      179      IM1      C4       CD2R5B    1.73480       11.6110           0 -0.868000       1.30000    
      9650 IM1      179      IM1      DC4      DRUD     -1.61680      0.400000           0   0.00000       0.00000    
      9651 IM1      179      IM1      H6       HDR5B    0.730000E-01   1.00800           0   0.00000       0.00000    
      9652 IM1      179      IM1      N2       ND2R5B    1.59050       13.6070           0 -0.840000       1.00000    
      9653 IM1      179      IM1      DN2      DRUD     -1.59050      0.400000           0   0.00000       0.00000    
      9654 IM1      179      IM1      H7       DUMH      0.00000       1.00800           0   0.00000       0.00000    
      9655 IM1      179      IM1      LPN21    LPD     -0.474000       0.00000          -1   0.00000       0.00000    
      9656 IM1      180      IM1      C1       CD33G     1.64330       11.6110           0  -1.08100       1.00000    
      9657 IM1      180      IM1      DC1      DRUD     -1.80430      0.400000           0   0.00000       0.00000    
      9658 IM1      180      IM1      H1       HDA3A    0.940000E-01   1.00800           0   0.00000       0.00000    
      9659 IM1      180      IM1      H2       HDA3A    0.940000E-01   1.00800           0   0.00000       0.00000    
      9660 IM1      180      IM1      H3       HDA3A    0.940000E-01   1.00800           0   0.00000       0.00000    
      9661 IM1      180      IM1      N1       ND2R5A    1.92920       13.6070           0  -1.06300       1.30000    
      9662 IM1      180      IM1      DN1      DRUD     -1.78920      0.400000           0   0.00000       0.00000    
      9663 IM1      180      IM1      C2       CD2R5A    1.66810       11.6110           0  -1.37800       1.30000    
      9664 IM1      180      IM1      DC2      DRUD     -2.03710      0.400000           0   0.00000       0.00000    
      9665 IM1      180      IM1      H4       HDR5A    0.150000       1.00800           0   0.00000       0.00000    
      9666 IM1      180      IM1      C3       CD2R5A    2.22510       11.6110           0  -1.37800       1.30000    
      9667 IM1      180      IM1      DC3      DRUD     -2.03710      0.400000           0   0.00000       0.00000    
      9668 IM1      180      IM1      H5       HDR5A    0.530000E-01   1.00800           0   0.00000       0.00000    
      9669 IM1      180      IM1      C4       CD2R5B    1.73480       11.6110           0 -0.868000       1.30000    
      9670 IM1      180      IM1      DC4      DRUD     -1.61680      0.400000           0   0.00000       0.00000    
      9671 IM1      180      IM1      H6       HDR5B    0.730000E-01   1.00800           0   0.00000       0.00000    
      9672 IM1      180      IM1      N2       ND2R5B    1.59050       13.6070           0 -0.840000       1.00000    
      9673 IM1      180      IM1      DN2      DRUD     -1.59050      0.400000           0   0.00000       0.00000    
      9674 IM1      180      IM1      H7       DUMH      0.00000       1.00800           0   0.00000       0.00000    
      9675 IM1      180      IM1      LPN21    LPD     -0.474000       0.00000          -1   0.00000       0.00000    
      9676 IM1      181      IM1      C1       CD33G     1.64330       11.6110           0  -1.08100       1.00000    
      9677 IM1      181      IM1      DC1      DRUD     -1.80430      0.400000           0   0.00000       0.00000    
      9678 IM1      181      IM1      H1       HDA3A    0.940000E-01   1.00800           0   0.00000       0.00000    
      9679 IM1      181      IM1      H2       HDA3A    0.940000E-01   1.00800           0   0.00000       0.00000    
      9680 IM1      181      IM1      H3       HDA3A    0.940000E-01   1.00800           0   0.00000       0.00000    
      9681 IM1      181      IM1      N1       ND2R5A    1.92920       13.6070           0  -1.06300       1.30000    
      9682 IM1      181      IM1      DN1      DRUD     -1.78920      0.400000           0   0.00000       0.00000    
      9683 IM1      181      IM1      C2       CD2R5A    1.66810       11.6110           0  -1.37800       1.30000    
      9684 IM1      181      IM1      DC2      DRUD     -2.03710      0.400000           0   0.00000       0.00000    
      9685 IM1      181      IM1      H4       HDR5A    0.150000       1.00800           0   0.00000       0.00000    
      9686 IM1      181      IM1      C3       CD2R5A    2.22510       11.6110           0  -1.37800       1.30000    
      9687 IM1      181      IM1      DC3      DRUD     -2.03710      0.400000           0   0.00000       0.00000    
      9688 IM1      181      IM1      H5       HDR5A    0.530000E-01   1.00800           0   0.00000       0.00000    
      9689 IM1      181      IM1      C4       CD2R5B    1.73480       11.6110           0 -0.868000       1.30000    
      9690 IM1      181      IM1      DC4      DRUD     -1.61680      0.400000           0   0.00000       0.00000    
      9691 IM1      181      IM1      H6       HDR5B    0.730000E-01   1.00800           0   0.00000       0.00000    
      9692 IM1      181      IM1      N2       ND2R5B    1.59050       13.6070           0 -0.840000       1.00000    
      9693 IM1      181      IM1      DN2      DRUD     -1.59050      0.400000           0   0.00000       0.00000    
      9694 IM1      181      IM1      H7       DUMH      0.00000       1.00800           0   0.00000       0.00000    
      9695 IM1      181      IM1      LPN21    LPD     -0.474000       0.00000          -1   0.00000       0.00000    
      9696 IM1      182      IM1      C1       CD33G     1.64330       11.6110           0  -1.08100       1.00000    
      9697 IM1      182      IM1      DC1      DRUD     -1.80430      0.400000           0   0.00000       0.00000    
      9698 IM1      182      IM1      H1       HDA3A    0.940000E-01   1.00800           0   0.00000       0.00000    
      9699 IM1      182      IM1      H2       HDA3A    0.940000E-01   1.00800           0   0.00000       0.00000    
      9700 IM1      182      IM1      H3       HDA3A    0.940000E-01   1.00800           0   0.00000       0.00000    
      9701 IM1      182      IM1      N1       ND2R5A    1.92920       13.6070           0  -1.06300       1.30000    
      9702 IM1      182      IM1      DN1      DRUD     -1.78920      0.400000           0   0.00000       0.00000    
      9703 IM1      182      IM1      C2       CD2R5A    1.66810       11.6110           0  -1.37800       1.30000    
      9704 IM1      182      IM1      DC2      DRUD     -2.03710      0.400000           0   0.00000       0.00000    
      9705 IM1      182      IM1      H4       HDR5A    0.150000       1.00800           0   0.00000       0.00000    
      9706 IM1      182      IM1      C3       CD2R5A    2.22510       11.6110           0  -1.37800       1.30000    
      9707 IM1      182      IM1      DC3      DRUD     -2.03710      0.400000           0   0.00000       0.00000    
      9708 IM1      182      IM1      H5       HDR5A    0.530000E-01   1.00800           0   0.00000       0.00000    
      9709 IM1      182      IM1      C4       CD2R5B    1.73480       11.6110           0 -0.868000       1.30000    
      9710 IM1      182      IM1      DC4      DRUD     -1.61680      0.400000           0   0.00000       0.00000    
      9711 IM1      182      IM1      H6       HDR5B    0.730000E-01   1.00800           0   0.00000       0.00000    
      9712 IM1      182      IM1      N2       ND2R5B    1.59050       13.6070           0 -0.840000       1.00000    
      9713 IM1      182      IM1      DN2      DRUD     -1.59050      0.400000           0   0.00000       0.00000    
      9714 IM1      182      IM1      H7       DUMH      0.00000       1.00800           0   0.00000       0.00000    
      9715 IM1      182      IM1      LPN21    LPD     -0.474000       0.00000          -1   0.00000       0.00000    
      9716 IM1      183      IM1      C1       CD33G     1.64330       11.6110           0  -1.08100       1.00000    
      9717 IM1      183      IM1      DC1      DRUD     -1.80430      0.400000           0   0.00000       0.00000    
      9718 IM1      183      IM1      H1       HDA3A    0.940000E-01   1.00800           0   0.00000       0.00000    
      9719 IM1      183      IM1      H2       HDA3A    0.940000E-01   1.00800           0   0.00000       0.00000    
      9720 IM1      183      IM1      H3       HDA3A    0.940000E-01   1.00800           0   0.00000       0.00000    
      9721 IM1      183      IM1      N1       ND2R5A    1.92920       13.6070           0  -1.06300       1.30000    
      9722 IM1      183      IM1      DN1      DRUD     -1.78920      0.400000           0   0.00000       0.00000    
      9723 IM1      183      IM1      C2       CD2R5A    1.66810       11.6110           0  -1.37800       1.30000    
      9724 IM1      183      IM1      DC2      DRUD     -2.03710      0.400000           0   0.00000       0.00000    
      9725 IM1      183      IM1      H4       HDR5A    0.150000       1.00800           0   0.00000       0.00000    
      9726 IM1      183      IM1      C3       CD2R5A    2.22510       11.6110           0  -1.37800       1.30000    
      9727 IM1      183      IM1      DC3      DRUD     -2.03710      0.400000           0   0.00000       0.00000    
      9728 IM1      183      IM1      H5       HDR5A    0.530000E-01   1.00800           0   0.00000       0.00000    
      9729 IM1      183      IM1      C4       CD2R5B    1.73480       11.6110           0 -0.868000       1.30000    
      9730 IM1      183      IM1      DC4      DRUD     -1.61680      0.400000           0   0.00000       0.00000    
      9731 IM1      183      IM1      H6       HDR5B    0.730000E-01   1.00800           0   0.00000       0.00000    
      9732 IM1      183      IM1      N2       ND2R5B    1.59050       13.6070           0 -0.840000       1.00000    
      9733 IM1      183      IM1      DN2      DRUD     -1.59050      0.400000           0   0.00000       0.00000    
      9734 IM1      183      IM1      H7       DUMH      0.00000       1.00800           0   0.00000       0.00000    
      9735 IM1      183      IM1      LPN21    LPD     -0.474000       0.00000          -1   0.00000       0.00000    
      9736 IM1      184      IM1      C1       CD33G     1.64330       11.6110           0  -1.08100       1.00000    
      9737 IM1      184      IM1      DC1      DRUD     -1.80430      0.400000           0   0.00000       0.00000    
      9738 IM1      184      IM1      H1       HDA3A    0.940000E-01   1.00800           0   0.00000       0.00000    
      9739 IM1      184      IM1      H2       HDA3A    0.940000E-01   1.00800           0   0.00000       0.00000    
      9740 IM1      184      IM1      H3       HDA3A    0.940000E-01   1.00800           0   0.00000       0.00000    
      9741 IM1      184      IM1      N1       ND2R5A    1.92920       13.6070           0  -1.06300       1.30000    
      9742 IM1      184      IM1      DN1      DRUD     -1.78920      0.400000           0   0.00000       0.00000    
      9743 IM1      184      IM1      C2       CD2R5A    1.66810       11.6110           0  -1.37800       1.30000    
      9744 IM1      184      IM1      DC2      DRUD     -2.03710      0.400000           0   0.00000       0.00000    
      9745 IM1      184      IM1      H4       HDR5A    0.150000       1.00800           0   0.00000       0.00000    
      9746 IM1      184      IM1      C3       CD2R5A    2.22510       11.6110           0  -1.37800       1.30000    
      9747 IM1      184      IM1      DC3      DRUD     -2.03710      0.400000           0   0.00000       0.00000    
      9748 IM1      184      IM1      H5       HDR5A    0.530000E-01   1.00800           0   0.00000       0.00000    
      9749 IM1      184      IM1      C4       CD2R5B    1.73480       11.6110           0 -0.868000       1.30000    
      9750 IM1      184      IM1      DC4      DRUD     -1.61680      0.400000           0   0.00000       0.00000    
      9751 IM1      184      IM1      H6       HDR5B    0.730000E-01   1.00800           0   0.00000       0.00000    
      9752 IM1      184      IM1      N2       ND2R5B    1.59050       13.6070           0 -0.840000       1.00000    
      9753 IM1      184      IM1      DN2      DRUD     -1.59050      0.400000           0   0.00000       0.00000    
      9754 IM1      184      IM1      H7       DUMH      0.00000       1.00800           0   0.00000       0.00000    
      9755 IM1      184      IM1      LPN21    LPD     -0.474000       0.00000          -1   0.00000       0.00000    
      9756 IM1      185      IM1      C1       CD33G     1.64330       11.6110           0  -1.08100       1.00000    
      9757 IM1      185      IM1      DC1      DRUD     -1.80430      0.400000           0   0.00000       0.00000    
      9758 IM1      185      IM1      H1       HDA3A    0.940000E-01   1.00800           0   0.00000       0.00000    
      9759 IM1      185      IM1      H2       HDA3A    0.940000E-01   1.00800           0   0.00000       0.00000    
      9760 IM1      185      IM1      H3       HDA3A    0.940000E-01   1.00800           0   0.00000       0.00000    
      9761 IM1      185      IM1      N1       ND2R5A    1.92920       13.6070           0  -1.06300       1.30000    
      9762 IM1      185      IM1      DN1      DRUD     -1.78920      0.400000           0   0.00000       0.00000    
      9763 IM1      185      IM1      C2       CD2R5A    1.66810       11.6110           0  -1.37800       1.30000    
      9764 IM1      185      IM1      DC2      DRUD     -2.03710      0.400000           0   0.00000       0.00000    
      9765 IM1      185      IM1      H4       HDR5A    0.150000       1.00800           0   0.00000       0.00000    
      9766 IM1      185      IM1      C3       CD2R5A    2.22510       11.6110           0  -1.37800       1.30000    
      9767 IM1      185      IM1      DC3      DRUD     -2.03710      0.400000           0   0.00000       0.00000    
      9768 IM1      185      IM1      H5       HDR5A    0.530000E-01   1.00800           0   0.00000       0.00000    
      9769 IM1      185      IM1      C4       CD2R5B    1.73480       11.6110           0 -0.868000       1.30000    
      9770 IM1      185      IM1      DC4      DRUD     -1.61680      0.400000           0   0.00000       0.00000    
      9771 IM1      185      IM1      H6       HDR5B    0.730000E-01   1.00800           0   0.00000       0.00000    
      9772 IM1      185      IM1      N2       ND2R5B    1.59050       13.6070           0 -0.840000       1.00000    
      9773 IM1      185      IM1      DN2      DRUD     -1.59050      0.400000           0   0.00000       0.00000    
      9774 IM1      185      IM1      H7       DUMH      0.00000       1.00800           0   0.00000       0.00000    
      9775 IM1      185      IM1      LPN21    LPD     -0.474000       0.00000          -1   0.00000       0.00000    
      9776 IM1      186      IM1      C1       CD33G     1.64330       11.6110           0  -1.08100       1.00000    
      9777 IM1      186      IM1      DC1      DRUD     -1.80430      0.400000           0   0.00000       0.00000    
      9778 IM1      186      IM1      H1       HDA3A    0.940000E-01   1.00800           0   0.00000       0.00000    
      9779 IM1      186      IM1      H2       HDA3A    0.940000E-01   1.00800           0   0.00000       0.00000    
      9780 IM1      186      IM1      H3       HDA3A    0.940000E-01   1.00800           0   0.00000       0.00000    
      9781 IM1      186      IM1      N1       ND2R5A    1.92920       13.6070           0  -1.06300       1.30000    
      9782 IM1      186      IM1      DN1      DRUD     -1.78920      0.400000           0   0.00000       0.00000    
      9783 IM1      186      IM1      C2       CD2R5A    1.66810       11.6110           0  -1.37800       1.30000    
      9784 IM1      186      IM1      DC2      DRUD     -2.03710      0.400000           0   0.00000       0.00000    
      9785 IM1      186      IM1      H4       HDR5A    0.150000       1.00800           0   0.00000       0.00000    
      9786 IM1      186      IM1      C3       CD2R5A    2.22510       11.6110           0  -1.37800       1.30000    
      9787 IM1      186      IM1      DC3      DRUD     -2.03710      0.400000           0   0.00000       0.00000    
      9788 IM1      186      IM1      H5       HDR5A    0.530000E-01   1.00800           0   0.00000       0.00000    
      9789 IM1      186      IM1      C4       CD2R5B    1.73480       11.6110           0 -0.868000       1.30000    
      9790 IM1      186      IM1      DC4      DRUD     -1.61680      0.400000           0   0.00000       0.00000    
      9791 IM1      186      IM1      H6       HDR5B    0.730000E-01   1.00800           0   0.00000       0.00000    
      9792 IM1      186      IM1      N2       ND2R5B    1.59050       13.6070           0 -0.840000       1.00000    
      9793 IM1      186      IM1      DN2      DRUD     -1.59050      0.400000           0   0.00000       0.00000    
      9794 IM1      186      IM1      H7       DUMH      0.00000       1.00800           0   0.00000       0.00000    
      9795 IM1      186      IM1      LPN21    LPD     -0.474000       0.00000          -1   0.00000       0.00000    
      9796 IM1      187      IM1      C1       CD33G     1.64330       11.6110           0  -1.08100       1.00000    
      9797 IM1      187      IM1      DC1      DRUD     -1.80430      0.400000           0   0.00000       0.00000    
      9798 IM1      187      IM1      H1       HDA3A    0.940000E-01   1.00800           0   0.00000       0.00000    
      9799 IM1      187      IM1      H2       HDA3A    0.940000E-01   1.00800           0   0.00000       0.00000    
      9800 IM1      187      IM1      H3       HDA3A    0.940000E-01   1.00800           0   0.00000       0.00000    
      9801 IM1      187      IM1      N1       ND2R5A    1.92920       13.6070           0  -1.06300       1.30000    
      9802 IM1      187      IM1      DN1      DRUD     -1.78920      0.400000           0   0.00000       0.00000    
      9803 IM1      187      IM1      C2       CD2R5A    1.66810       11.6110           0  -1.37800       1.30000    
      9804 IM1      187      IM1      DC2      DRUD     -2.03710      0.400000           0   0.00000       0.00000    
      9805 IM1      187      IM1      H4       HDR5A    0.150000       1.00800           0   0.00000       0.00000    
      9806 IM1      187      IM1      C3       CD2R5A    2.22510       11.6110           0  -1.37800       1.30000    
      9807 IM1      187      IM1      DC3      DRUD     -2.03710      0.400000           0   0.00000       0.00000    
      9808 IM1      187      IM1      H5       HDR5A    0.530000E-01   1.00800           0   0.00000       0.00000    
      9809 IM1      187      IM1      C4       CD2R5B    1.73480       11.6110           0 -0.868000       1.30000    
      9810 IM1      187      IM1      DC4      DRUD     -1.61680      0.400000           0   0.00000       0.00000    
      9811 IM1      187      IM1      H6       HDR5B    0.730000E-01   1.00800           0   0.00000       0.00000    
      9812 IM1      187      IM1      N2       ND2R5B    1.59050       13.6070           0 -0.840000       1.00000    
      9813 IM1      187      IM1      DN2      DRUD     -1.59050      0.400000           0   0.00000       0.00000    
      9814 IM1      187      IM1      H7       DUMH      0.00000       1.00800           0   0.00000       0.00000    
      9815 IM1      187      IM1      LPN21    LPD     -0.474000       0.00000          -1   0.00000       0.00000    
      9816 IM1      188      IM1      C1       CD33G     1.64330       11.6110           0  -1.08100       1.00000    
      9817 IM1      188      IM1      DC1      DRUD     -1.80430      0.400000           0   0.00000       0.00000    
      9818 IM1      188      IM1      H1       HDA3A    0.940000E-01   1.00800           0   0.00000       0.00000    
      9819 IM1      188      IM1      H2       HDA3A    0.940000E-01   1.00800           0   0.00000       0.00000    
      9820 IM1      188      IM1      H3       HDA3A    0.940000E-01   1.00800           0   0.00000       0.00000    
      9821 IM1      188      IM1      N1       ND2R5A    1.92920       13.6070           0  -1.06300       1.30000    
      9822 IM1      188      IM1      DN1      DRUD     -1.78920      0.400000           0   0.00000       0.00000    
      9823 IM1      188      IM1      C2       CD2R5A    1.66810       11.6110           0  -1.37800       1.30000    
      9824 IM1      188      IM1      DC2      DRUD     -2.03710      0.400000           0   0.00000       0.00000    
      9825 IM1      188      IM1      H4       HDR5A    0.150000       1.00800           0   0.00000       0.00000    
      9826 IM1      188      IM1      C3       CD2R5A    2.22510       11.6110           0  -1.37800       1.30000    
      9827 IM1      188      IM1      DC3      DRUD     -2.03710      0.400000           0   0.00000       0.00000    
      9828 IM1      188      IM1      H5       HDR5A    0.530000E-01   1.00800           0   0.00000       0.00000    
      9829 IM1      188      IM1      C4       CD2R5B    1.73480       11.6110           0 -0.868000       1.30000    
      9830 IM1      188      IM1      DC4      DRUD     -1.61680      0.400000           0   0.00000       0.00000    
      9831 IM1      188      IM1      H6       HDR5B    0.730000E-01   1.00800           0   0.00000       0.00000    
      9832 IM1      188      IM1      N2       ND2R5B    1.59050       13.6070           0 -0.840000       1.00000    
      9833 IM1      188      IM1      DN2      DRUD     -1.59050      0.400000           0   0.00000       0.00000    
      9834 IM1      188      IM1      H7       DUMH      0.00000       1.00800           0   0.00000       0.00000    
      9835 IM1      188      IM1      LPN21    LPD     -0.474000       0.00000          -1   0.00000       0.00000    
      9836 IM1      189      IM1      C1       CD33G     1.64330       11.6110           0  -1.08100       1.00000    
      9837 IM1      189      IM1      DC1      DRUD     -1.80430      0.400000           0   0.00000       0.00000    
      9838 IM1      189      IM1      H1       HDA3A    0.940000E-01   1.00800           0   0.00000       0.00000    
      9839 IM1      189      IM1      H2       HDA3A    0.940000E-01   1.00800           0   0.00000       0.00000    
      9840 IM1      189      IM1      H3       HDA3A    0.940000E-01   1.00800           0   0.00000       0.00000    
      9841 IM1      189      IM1      N1       ND2R5A    1.92920       13.6070           0  -1.06300       1.30000    
      9842 IM1      189      IM1      DN1      DRUD     -1.78920      0.400000           0   0.00000       0.00000    
      9843 IM1      189      IM1      C2       CD2R5A    1.66810       11.6110           0  -1.37800       1.30000    
      9844 IM1      189      IM1      DC2      DRUD     -2.03710      0.400000           0   0.00000       0.00000    
      9845 IM1      189      IM1      H4       HDR5A    0.150000       1.00800           0   0.00000       0.00000    
      9846 IM1      189      IM1      C3       CD2R5A    2.22510       11.6110           0  -1.37800       1.30000    
      9847 IM1      189      IM1      DC3      DRUD     -2.03710      0.400000           0   0.00000       0.00000    
      9848 IM1      189      IM1      H5       HDR5A    0.530000E-01   1.00800           0   0.00000       0.00000    
      9849 IM1      189      IM1      C4       CD2R5B    1.73480       11.6110           0 -0.868000       1.30000    
      9850 IM1      189      IM1      DC4      DRUD     -1.61680      0.400000           0   0.00000       0.00000    
      9851 IM1      189      IM1      H6       HDR5B    0.730000E-01   1.00800           0   0.00000       0.00000    
      9852 IM1      189      IM1      N2       ND2R5B    1.59050       13.6070           0 -0.840000       1.00000    
      9853 IM1      189      IM1      DN2      DRUD     -1.59050      0.400000           0   0.00000       0.00000    
      9854 IM1      189      IM1      H7       DUMH      0.00000       1.00800           0   0.00000       0.00000    
      9855 IM1      189      IM1      LPN21    LPD     -0.474000       0.00000          -1   0.00000       0.00000    
      9856 IM1      190      IM1      C1       CD33G     1.64330       11.6110           0  -1.08100       1.00000    
      9857 IM1      190      IM1      DC1      DRUD     -1.80430      0.400000           0   0.00000       0.00000    
      9858 IM1      190      IM1      H1       HDA3A    0.940000E-01   1.00800           0   0.00000       0.00000    
      9859 IM1      190      IM1      H2       HDA3A    0.940000E-01   1.00800           0   0.00000       0.00000    
      9860 IM1      190      IM1      H3       HDA3A    0.940000E-01   1.00800           0   0.00000       0.00000    
      9861 IM1      190      IM1      N1       ND2R5A    1.92920       13.6070           0  -1.06300       1.30000    
      9862 IM1      190      IM1      DN1      DRUD     -1.78920      0.400000           0   0.00000       0.00000    
      9863 IM1      190      IM1      C2       CD2R5A    1.66810       11.6110           0  -1.37800       1.30000    
      9864 IM1      190      IM1      DC2      DRUD     -2.03710      0.400000           0   0.00000       0.00000    
      9865 IM1      190      IM1      H4       HDR5A    0.150000       1.00800           0   0.00000       0.00000    
      9866 IM1      190      IM1      C3       CD2R5A    2.22510       11.6110           0  -1.37800       1.30000    
      9867 IM1      190      IM1      DC3      DRUD     -2.03710      0.400000           0   0.00000       0.00000    
      9868 IM1      190      IM1      H5       HDR5A    0.530000E-01   1.00800           0   0.00000       0.00000    
      9869 IM1      190      IM1      C4       CD2R5B    1.73480       11.6110           0 -0.868000       1.30000    
      9870 IM1      190      IM1      DC4      DRUD     -1.61680      0.400000           0   0.00000       0.00000    
      9871 IM1      190      IM1      H6       HDR5B    0.730000E-01   1.00800           0   0.00000       0.00000    
      9872 IM1      190      IM1      N2       ND2R5B    1.59050       13.6070           0 -0.840000       1.00000    
      9873 IM1      190      IM1      DN2      DRUD     -1.59050      0.400000           0   0.00000       0.00000    
      9874 IM1      190      IM1      H7       DUMH      0.00000       1.00800           0   0.00000       0.00000    
      9875 IM1      190      IM1      LPN21    LPD     -0.474000       0.00000          -1   0.00000       0.00000    
      9876 IM1      191      IM1      C1       CD33G     1.64330       11.6110           0  -1.08100       1.00000    
      9877 IM1      191      IM1      DC1      DRUD     -1.80430      0.400000           0   0.00000       0.00000    
      9878 IM1      191      IM1      H1       HDA3A    0.940000E-01   1.00800           0   0.00000       0.00000    
      9879 IM1      191      IM1      H2       HDA3A    0.940000E-01   1.00800           0   0.00000       0.00000    
      9880 IM1      191      IM1      H3       HDA3A    0.940000E-01   1.00800           0   0.00000       0.00000    
      9881 IM1      191      IM1      N1       ND2R5A    1.92920       13.6070           0  -1.06300       1.30000    
      9882 IM1      191      IM1      DN1      DRUD     -1.78920      0.400000           0   0.00000       0.00000    
      9883 IM1      191      IM1      C2       CD2R5A    1.66810       11.6110           0  -1.37800       1.30000    
      9884 IM1      191      IM1      DC2      DRUD     -2.03710      0.400000           0   0.00000       0.00000    
      9885 IM1      191      IM1      H4       HDR5A    0.150000       1.00800           0   0.00000       0.00000    
      9886 IM1      191      IM1      C3       CD2R5A    2.22510       11.6110           0  -1.37800       1.30000    
      9887 IM1      191      IM1      DC3      DRUD     -2.03710      0.400000           0   0.00000       0.00000    
      9888 IM1      191      IM1      H5       HDR5A    0.530000E-01   1.00800           0   0.00000       0.00000    
      9889 IM1      191      IM1      C4       CD2R5B    1.73480       11.6110           0 -0.868000       1.30000    
      9890 IM1      191      IM1      DC4      DRUD     -1.61680      0.400000           0   0.00000       0.00000    
      9891 IM1      191      IM1      H6       HDR5B    0.730000E-01   1.00800           0   0.00000       0.00000    
      9892 IM1      191      IM1      N2       ND2R5B    1.59050       13.6070           0 -0.840000       1.00000    
      9893 IM1      191      IM1      DN2      DRUD     -1.59050      0.400000           0   0.00000       0.00000    
      9894 IM1      191      IM1      H7       DUMH      0.00000       1.00800           0   0.00000       0.00000    
      9895 IM1      191      IM1      LPN21    LPD     -0.474000       0.00000          -1   0.00000       0.00000    
      9896 IM1      192      IM1      C1       CD33G     1.64330       11.6110           0  -1.08100       1.00000    
      9897 IM1      192      IM1      DC1      DRUD     -1.80430      0.400000           0   0.00000       0.00000    
      9898 IM1      192      IM1      H1       HDA3A    0.940000E-01   1.00800           0   0.00000       0.00000    
      9899 IM1      192      IM1      H2       HDA3A    0.940000E-01   1.00800           0   0.00000       0.00000    
      9900 IM1      192      IM1      H3       HDA3A    0.940000E-01   1.00800           0   0.00000       0.00000    
      9901 IM1      192      IM1      N1       ND2R5A    1.92920       13.6070           0  -1.06300       1.30000    
      9902 IM1      192      IM1      DN1      DRUD     -1.78920      0.400000           0   0.00000       0.00000    
      9903 IM1      192      IM1      C2       CD2R5A    1.66810       11.6110           0  -1.37800       1.30000    
      9904 IM1      192      IM1      DC2      DRUD     -2.03710      0.400000           0   0.00000       0.00000    
      9905 IM1      192      IM1      H4       HDR5A    0.150000       1.00800           0   0.00000       0.00000    
      9906 IM1      192      IM1      C3       CD2R5A    2.22510       11.6110           0  -1.37800       1.30000    
      9907 IM1      192      IM1      DC3      DRUD     -2.03710      0.400000           0   0.00000       0.00000    
      9908 IM1      192      IM1      H5       HDR5A    0.530000E-01   1.00800           0   0.00000       0.00000    
      9909 IM1      192      IM1      C4       CD2R5B    1.73480       11.6110           0 -0.868000       1.30000    
      9910 IM1      192      IM1      DC4      DRUD     -1.61680      0.400000           0   0.00000       0.00000    
      9911 IM1      192      IM1      H6       HDR5B    0.730000E-01   1.00800           0   0.00000       0.00000    
      9912 IM1      192      IM1      N2       ND2R5B    1.59050       13.6070           0 -0.840000       1.00000    
      9913 IM1      192      IM1      DN2      DRUD     -1.59050      0.400000           0   0.00000       0.00000    
      9914 IM1      192      IM1      H7       DUMH      0.00000       1.00800           0   0.00000       0.00000    
      9915 IM1      192      IM1      LPN21    LPD     -0.474000       0.00000          -1   0.00000       0.00000    
      9916 IM1      193      IM1      C1       CD33G     1.64330       11.6110           0  -1.08100       1.00000    
      9917 IM1      193      IM1      DC1      DRUD     -1.80430      0.400000           0   0.00000       0.00000    
      9918 IM1      193      IM1      H1       HDA3A    0.940000E-01   1.00800           0   0.00000       0.00000    
      9919 IM1      193      IM1      H2       HDA3A    0.940000E-01   1.00800           0   0.00000       0.00000    
      9920 IM1      193      IM1      H3       HDA3A    0.940000E-01   1.00800           0   0.00000       0.00000    
      9921 IM1      193      IM1      N1       ND2R5A    1.92920       13.6070           0  -1.06300       1.30000    
      9922 IM1      193      IM1      DN1      DRUD     -1.78920      0.400000           0   0.00000       0.00000    
      9923 IM1      193      IM1      C2       CD2R5A    1.66810       11.6110           0  -1.37800       1.30000    
      9924 IM1      193      IM1      DC2      DRUD     -2.03710      0.400000           0   0.00000       0.00000    
      9925 IM1      193      IM1      H4       HDR5A    0.150000       1.00800           0   0.00000       0.00000    
      9926 IM1      193      IM1      C3       CD2R5A    2.22510       11.6110           0  -1.37800       1.30000    
      9927 IM1      193      IM1      DC3      DRUD     -2.03710      0.400000           0   0.00000       0.00000    
      9928 IM1      193      IM1      H5       HDR5A    0.530000E-01   1.00800           0   0.00000       0.00000    
      9929 IM1      193      IM1      C4       CD2R5B    1.73480       11.6110           0 -0.868000       1.30000    
      9930 IM1      193      IM1      DC4      DRUD     -1.61680      0.400000           0   0.00000       0.00000    
      9931 IM1      193      IM1      H6       HDR5B    0.730000E-01   1.00800           0   0.00000       0.00000    
      9932 IM1      193      IM1      N2       ND2R5B    1.59050       13.6070           0 -0.840000       1.00000    
      9933 IM1      193      IM1      DN2      DRUD     -1.59050      0.400000           0   0.00000       0.00000    
      9934 IM1      193      IM1      H7       DUMH      0.00000       1.00800           0   0.00000       0.00000    
      9935 IM1      193      IM1      LPN21    LPD     -0.474000       0.00000          -1   0.00000       0.00000    
      9936 IM1      194      IM1      C1       CD33G     1.64330       11.6110           0  -1.08100       1.00000    
      9937 IM1      194      IM1      DC1      DRUD     -1.80430      0.400000           0   0.00000       0.00000    
      9938 IM1      194      IM1      H1       HDA3A    0.940000E-01   1.00800           0   0.00000       0.00000    
      9939 IM1      194      IM1      H2       HDA3A    0.940000E-01   1.00800           0   0.00000       0.00000    
      9940 IM1      194      IM1      H3       HDA3A    0.940000E-01   1.00800           0   0.00000       0.00000    
      9941 IM1      194      IM1      N1       ND2R5A    1.92920       13.6070           0  -1.06300       1.30000    
      9942 IM1      194      IM1      DN1      DRUD     -1.78920      0.400000           0   0.00000       0.00000    
      9943 IM1      194      IM1      C2       CD2R5A    1.66810       11.6110           0  -1.37800       1.30000    
      9944 IM1      194      IM1      DC2      DRUD     -2.03710      0.400000           0   0.00000       0.00000    
      9945 IM1      194      IM1      H4       HDR5A    0.150000       1.00800           0   0.00000       0.00000    
      9946 IM1      194      IM1      C3       CD2R5A    2.22510       11.6110           0  -1.37800       1.30000    
      9947 IM1      194      IM1      DC3      DRUD     -2.03710      0.400000           0   0.00000       0.00000    
      9948 IM1      194      IM1      H5       HDR5A    0.530000E-01   1.00800           0   0.00000       0.00000    
      9949 IM1      194      IM1      C4       CD2R5B    1.73480       11.6110           0 -0.868000       1.30000    
      9950 IM1      194      IM1      DC4      DRUD     -1.61680      0.400000           0   0.00000       0.00000    
      9951 IM1      194      IM1      H6       HDR5B    0.730000E-01   1.00800           0   0.00000       0.00000    
      9952 IM1      194      IM1      N2       ND2R5B    1.59050       13.6070           0 -0.840000       1.00000    
      9953 IM1      194      IM1      DN2      DRUD     -1.59050      0.400000           0   0.00000       0.00000    
      9954 IM1      194      IM1      H7       DUMH      0.00000       1.00800           0   0.00000       0.00000    
      9955 IM1      194      IM1      LPN21    LPD     -0.474000       0.00000          -1   0.00000       0.00000    
      9956 IM1      195      IM1      C1       CD33G     1.64330       11.6110           0  -1.08100       1.00000    
      9957 IM1      195      IM1      DC1      DRUD     -1.80430      0.400000           0   0.00000       0.00000    
      9958 IM1      195      IM1      H1       HDA3A    0.940000E-01   1.00800           0   0.00000       0.00000    
      9959 IM1      195      IM1      H2       HDA3A    0.940000E-01   1.00800           0   0.00000       0.00000    
      9960 IM1      195      IM1      H3       HDA3A    0.940000E-01   1.00800           0   0.00000       0.00000    
      9961 IM1      195      IM1      N1       ND2R5A    1.92920       13.6070           0  -1.06300       1.30000    
      9962 IM1      195      IM1      DN1      DRUD     -1.78920      0.400000           0   0.00000       0.00000    
      9963 IM1      195      IM1      C2       CD2R5A    1.66810       11.6110           0  -1.37800       1.30000    
      9964 IM1      195      IM1      DC2      DRUD     -2.03710      0.400000           0   0.00000       0.00000    
      9965 IM1      195      IM1      H4       HDR5A    0.150000       1.00800           0   0.00000       0.00000    
      9966 IM1      195      IM1      C3       CD2R5A    2.22510       11.6110           0  -1.37800       1.30000    
      9967 IM1      195      IM1      DC3      DRUD     -2.03710      0.400000           0   0.00000       0.00000    
      9968 IM1      195      IM1      H5       HDR5A    0.530000E-01   1.00800           0   0.00000       0.00000    
      9969 IM1      195      IM1      C4       CD2R5B    1.73480       11.6110           0 -0.868000       1.30000    
      9970 IM1      195      IM1      DC4      DRUD     -1.61680      0.400000           0   0.00000       0.00000    
      9971 IM1      195      IM1      H6       HDR5B    0.730000E-01   1.00800           0   0.00000       0.00000    
      9972 IM1      195      IM1      N2       ND2R5B    1.59050       13.6070           0 -0.840000       1.00000    
      9973 IM1      195      IM1      DN2      DRUD     -1.59050      0.400000           0   0.00000       0.00000    
      9974 IM1      195      IM1      H7       DUMH      0.00000       1.00800           0   0.00000       0.00000    
      9975 IM1      195      IM1      LPN21    LPD     -0.474000       0.00000          -1   0.00000       0.00000    
      9976 IM1      196      IM1      C1       CD33G     1.64330       11.6110           0  -1.08100       1.00000    
      9977 IM1      196      IM1      DC1      DRUD     -1.80430      0.400000           0   0.00000       0.00000    
      9978 IM1      196      IM1      H1       HDA3A    0.940000E-01   1.00800           0   0.00000       0.00000    
      9979 IM1      196      IM1      H2       HDA3A    0.940000E-01   1.00800           0   0.00000       0.00000    
      9980 IM1      196      IM1      H3       HDA3A    0.940000E-01   1.00800           0   0.00000       0.00000    
      9981 IM1      196      IM1      N1       ND2R5A    1.92920       13.6070           0  -1.06300       1.30000    
      9982 IM1      196      IM1      DN1      DRUD     -1.78920      0.400000           0   0.00000       0.00000    
      9983 IM1      196      IM1      C2       CD2R5A    1.66810       11.6110           0  -1.37800       1.30000    
      9984 IM1      196      IM1      DC2      DRUD     -2.03710      0.400000           0   0.00000       0.00000    
      9985 IM1      196      IM1      H4       HDR5A    0.150000       1.00800           0   0.00000       0.00000    
      9986 IM1      196      IM1      C3       CD2R5A    2.22510       11.6110           0  -1.37800       1.30000    
      9987 IM1      196      IM1      DC3      DRUD     -2.03710      0.400000           0   0.00000       0.00000    
      9988 IM1      196      IM1      H5       HDR5A    0.530000E-01   1.00800           0   0.00000       0.00000    
      9989 IM1      196      IM1      C4       CD2R5B    1.73480       11.6110           0 -0.868000       1.30000    
      9990 IM1      196      IM1      DC4      DRUD     -1.61680      0.400000           0   0.00000       0.00000    
      9991 IM1      196      IM1      H6       HDR5B    0.730000E-01   1.00800           0   0.00000       0.00000    
      9992 IM1      196      IM1      N2       ND2R5B    1.59050       13.6070           0 -0.840000       1.00000    
      9993 IM1      196      IM1      DN2      DRUD     -1.59050      0.400000           0   0.00000       0.00000    
      9994 IM1      196      IM1      H7       DUMH      0.00000       1.00800           0   0.00000       0.00000    
      9995 IM1      196      IM1      LPN21    LPD     -0.474000       0.00000          -1   0.00000       0.00000    
      9996 IM1      197      IM1      C1       CD33G     1.64330       11.6110           0  -1.08100       1.00000    
      9997 IM1      197      IM1      DC1      DRUD     -1.80430      0.400000           0   0.00000       0.00000    
      9998 IM1      197      IM1      H1       HDA3A    0.940000E-01   1.00800           0   0.00000       0.00000    
      9999 IM1      197      IM1      H2       HDA3A    0.940000E-01   1.00800           0   0.00000       0.00000    
     10000 IM1      197      IM1      H3       HDA3A    0.940000E-01   1.00800           0   0.00000       0.00000    
     10001 IM1      197      IM1      N1       ND2R5A    1.92920       13.6070           0  -1.06300       1.30000    
     10002 IM1      197      IM1      DN1      DRUD     -1.78920      0.400000           0   0.00000       0.00000    
     10003 IM1      197      IM1      C2       CD2R5A    1.66810       11.6110           0  -1.37800       1.30000    
     10004 IM1      197      IM1      DC2      DRUD     -2.03710      0.400000           0   0.00000       0.00000    
     10005 IM1      197      IM1      H4       HDR5A    0.150000       1.00800           0   0.00000       0.00000    
     10006 IM1      197      IM1      C3       CD2R5A    2.22510       11.6110           0  -1.37800       1.30000    
     10007 IM1      197      IM1      DC3      DRUD     -2.03710      0.400000           0   0.00000       0.00000    
     10008 IM1      197      IM1      H5       HDR5A    0.530000E-01   1.00800           0   0.00000       0.00000    
     10009 IM1      197      IM1      C4       CD2R5B    1.73480       11.6110           0 -0.868000       1.30000    
     10010 IM1      197      IM1      DC4      DRUD     -1.61680      0.400000           0   0.00000       0.00000    
     10011 IM1      197      IM1      H6       HDR5B    0.730000E-01   1.00800           0   0.00000       0.00000    
     10012 IM1      197      IM1      N2       ND2R5B    1.59050       13.6070           0 -0.840000       1.00000    
     10013 IM1      197      IM1      DN2      DRUD     -1.59050      0.400000           0   0.00000       0.00000    
     10014 IM1      197      IM1      H7       DUMH      0.00000       1.00800           0   0.00000       0.00000    
     10015 IM1      197      IM1      LPN21    LPD     -0.474000       0.00000          -1   0.00000       0.00000    
     10016 IM1      198      IM1      C1       CD33G     1.64330       11.6110           0  -1.08100       1.00000    
     10017 IM1      198      IM1      DC1      DRUD     -1.80430      0.400000           0   0.00000       0.00000    
     10018 IM1      198      IM1      H1       HDA3A    0.940000E-01   1.00800           0   0.00000       0.00000    
     10019 IM1      198      IM1      H2       HDA3A    0.940000E-01   1.00800           0   0.00000       0.00000    
     10020 IM1      198      IM1      H3       HDA3A    0.940000E-01   1.00800           0   0.00000       0.00000    
     10021 IM1      198      IM1      N1       ND2R5A    1.92920       13.6070           0  -1.06300       1.30000    
     10022 IM1      198      IM1      DN1      DRUD     -1.78920      0.400000           0   0.00000       0.00000    
     10023 IM1      198      IM1      C2       CD2R5A    1.66810       11.6110           0  -1.37800       1.30000    
     10024 IM1      198      IM1      DC2      DRUD     -2.03710      0.400000           0   0.00000       0.00000    
     10025 IM1      198      IM1      H4       HDR5A    0.150000       1.00800           0   0.00000       0.00000    
     10026 IM1      198      IM1      C3       CD2R5A    2.22510       11.6110           0  -1.37800       1.30000    
     10027 IM1      198      IM1      DC3      DRUD     -2.03710      0.400000           0   0.00000       0.00000    
     10028 IM1      198      IM1      H5       HDR5A    0.530000E-01   1.00800           0   0.00000       0.00000    
     10029 IM1      198      IM1      C4       CD2R5B    1.73480       11.6110           0 -0.868000       1.30000    
     10030 IM1      198      IM1      DC4      DRUD     -1.61680      0.400000           0   0.00000       0.00000    
     10031 IM1      198      IM1      H6       HDR5B    0.730000E-01   1.00800           0   0.00000       0.00000    
     10032 IM1      198      IM1      N2       ND2R5B    1.59050       13.6070           0 -0.840000       1.00000    
     10033 IM1      198      IM1      DN2      DRUD     -1.59050      0.400000           0   0.00000       0.00000    
     10034 IM1      198      IM1      H7       DUMH      0.00000       1.00800           0   0.00000       0.00000    
     10035 IM1      198      IM1      LPN21    LPD     -0.474000       0.00000          -1   0.00000       0.00000    
     10036 IM1      199      IM1      C1       CD33G     1.64330       11.6110           0  -1.08100       1.00000    
     10037 IM1      199      IM1      DC1      DRUD     -1.80430      0.400000           0   0.00000       0.00000    
     10038 IM1      199      IM1      H1       HDA3A    0.940000E-01   1.00800           0   0.00000       0.00000    
     10039 IM1      199      IM1      H2       HDA3A    0.940000E-01   1.00800           0   0.00000       0.00000    
     10040 IM1      199      IM1      H3       HDA3A    0.940000E-01   1.00800           0   0.00000       0.00000    
     10041 IM1      199      IM1      N1       ND2R5A    1.92920       13.6070           0  -1.06300       1.30000    
     10042 IM1      199      IM1      DN1      DRUD     -1.78920      0.400000           0   0.00000       0.00000    
     10043 IM1      199      IM1      C2       CD2R5A    1.66810       11.6110           0  -1.37800       1.30000    
     10044 IM1      199      IM1      DC2      DRUD     -2.03710      0.400000           0   0.00000       0.00000    
     10045 IM1      199      IM1      H4       HDR5A    0.150000       1.00800           0   0.00000       0.00000    
     10046 IM1      199      IM1      C3       CD2R5A    2.22510       11.6110           0  -1.37800       1.30000    
     10047 IM1      199      IM1      DC3      DRUD     -2.03710      0.400000           0   0.00000       0.00000    
     10048 IM1      199      IM1      H5       HDR5A    0.530000E-01   1.00800           0   0.00000       0.00000    
     10049 IM1      199      IM1      C4       CD2R5B    1.73480       11.6110           0 -0.868000       1.30000    
     10050 IM1      199      IM1      DC4      DRUD     -1.61680      0.400000           0   0.00000       0.00000    
     10051 IM1      199      IM1      H6       HDR5B    0.730000E-01   1.00800           0   0.00000       0.00000    
     10052 IM1      199      IM1      N2       ND2R5B    1.59050       13.6070           0 -0.840000       1.00000    
     10053 IM1      199      IM1      DN2      DRUD     -1.59050      0.400000           0   0.00000       0.00000    
     10054 IM1      199      IM1      H7       DUMH      0.00000       1.00800           0   0.00000       0.00000    
     10055 IM1      199      IM1      LPN21    LPD     -0.474000       0.00000          -1   0.00000       0.00000    
     10056 IM1      200      IM1      C1       CD33G     1.64330       11.6110           0  -1.08100       1.00000    
     10057 IM1      200      IM1      DC1      DRUD     -1.80430      0.400000           0   0.00000       0.00000    
     10058 IM1      200      IM1      H1       HDA3A    0.940000E-01   1.00800           0   0.00000       0.00000    
     10059 IM1      200      IM1      H2       HDA3A    0.940000E-01   1.00800           0   0.00000       0.00000    
     10060 IM1      200      IM1      H3       HDA3A    0.940000E-01   1.00800           0   0.00000       0.00000    
     10061 IM1      200      IM1      N1       ND2R5A    1.92920       13.6070           0  -1.06300       1.30000    
     10062 IM1      200      IM1      DN1      DRUD     -1.78920      0.400000           0   0.00000       0.00000    
     10063 IM1      200      IM1      C2       CD2R5A    1.66810       11.6110           0  -1.37800       1.30000    
     10064 IM1      200      IM1      DC2      DRUD     -2.03710      0.400000           0   0.00000       0.00000    
     10065 IM1      200      IM1      H4       HDR5A    0.150000       1.00800           0   0.00000       0.00000    
     10066 IM1      200      IM1      C3       CD2R5A    2.22510       11.6110           0  -1.37800       1.30000    
     10067 IM1      200      IM1      DC3      DRUD     -2.03710      0.400000           0   0.00000       0.00000    
     10068 IM1      200      IM1      H5       HDR5A    0.530000E-01   1.00800           0   0.00000       0.00000    
     10069 IM1      200      IM1      C4       CD2R5B    1.73480       11.6110           0 -0.868000       1.30000    
     10070 IM1      200      IM1      DC4      DRUD     -1.61680      0.400000           0   0.00000       0.00000    
     10071 IM1      200      IM1      H6       HDR5B    0.730000E-01   1.00800           0   0.00000       0.00000    
     10072 IM1      200      IM1      N2       ND2R5B    1.59050       13.6070           0 -0.840000       1.00000    
     10073 IM1      200      IM1      DN2      DRUD     -1.59050      0.400000           0   0.00000       0.00000    
     10074 IM1      200      IM1      H7       DUMH      0.00000       1.00800           0   0.00000       0.00000    
     10075 IM1      200      IM1      LPN21    LPD     -0.474000       0.00000          -1   0.00000       0.00000    
     10076 IM1      201      IM1      C1       CD33G     1.64330       11.6110           0  -1.08100       1.00000    
     10077 IM1      201      IM1      DC1      DRUD     -1.80430      0.400000           0   0.00000       0.00000    
     10078 IM1      201      IM1      H1       HDA3A    0.940000E-01   1.00800           0   0.00000       0.00000    
     10079 IM1      201      IM1      H2       HDA3A    0.940000E-01   1.00800           0   0.00000       0.00000    
     10080 IM1      201      IM1      H3       HDA3A    0.940000E-01   1.00800           0   0.00000       0.00000    
     10081 IM1      201      IM1      N1       ND2R5A    1.92920       13.6070           0  -1.06300       1.30000    
     10082 IM1      201      IM1      DN1      DRUD     -1.78920      0.400000           0   0.00000       0.00000    
     10083 IM1      201      IM1      C2       CD2R5A    1.66810       11.6110           0  -1.37800       1.30000    
     10084 IM1      201      IM1      DC2      DRUD     -2.03710      0.400000           0   0.00000       0.00000    
     10085 IM1      201      IM1      H4       HDR5A    0.150000       1.00800           0   0.00000       0.00000    
     10086 IM1      201      IM1      C3       CD2R5A    2.22510       11.6110           0  -1.37800       1.30000    
     10087 IM1      201      IM1      DC3      DRUD     -2.03710      0.400000           0   0.00000       0.00000    
     10088 IM1      201      IM1      H5       HDR5A    0.530000E-01   1.00800           0   0.00000       0.00000    
     10089 IM1      201      IM1      C4       CD2R5B    1.73480       11.6110           0 -0.868000       1.30000    
     10090 IM1      201      IM1      DC4      DRUD     -1.61680      0.400000           0   0.00000       0.00000    
     10091 IM1      201      IM1      H6       HDR5B    0.730000E-01   1.00800           0   0.00000       0.00000    
     10092 IM1      201      IM1      N2       ND2R5B    1.59050       13.6070           0 -0.840000       1.00000    
     10093 IM1      201      IM1      DN2      DRUD     -1.59050      0.400000           0   0.00000       0.00000    
     10094 IM1      201      IM1      H7       DUMH      0.00000       1.00800           0   0.00000       0.00000    
     10095 IM1      201      IM1      LPN21    LPD     -0.474000       0.00000          -1   0.00000       0.00000    
     10096 IM1      202      IM1      C1       CD33G     1.64330       11.6110           0  -1.08100       1.00000    
     10097 IM1      202      IM1      DC1      DRUD     -1.80430      0.400000           0   0.00000       0.00000    
     10098 IM1      202      IM1      H1       HDA3A    0.940000E-01   1.00800           0   0.00000       0.00000    
     10099 IM1      202      IM1      H2       HDA3A    0.940000E-01   1.00800           0   0.00000       0.00000    
     10100 IM1      202      IM1      H3       HDA3A    0.940000E-01   1.00800           0   0.00000       0.00000    
     10101 IM1      202      IM1      N1       ND2R5A    1.92920       13.6070           0  -1.06300       1.30000    
     10102 IM1      202      IM1      DN1      DRUD     -1.78920      0.400000           0   0.00000       0.00000    
     10103 IM1      202      IM1      C2       CD2R5A    1.66810       11.6110           0  -1.37800       1.30000    
     10104 IM1      202      IM1      DC2      DRUD     -2.03710      0.400000           0   0.00000       0.00000    
     10105 IM1      202      IM1      H4       HDR5A    0.150000       1.00800           0   0.00000       0.00000    
     10106 IM1      202      IM1      C3       CD2R5A    2.22510       11.6110           0  -1.37800       1.30000    
     10107 IM1      202      IM1      DC3      DRUD     -2.03710      0.400000           0   0.00000       0.00000    
     10108 IM1      202      IM1      H5       HDR5A    0.530000E-01   1.00800           0   0.00000       0.00000    
     10109 IM1      202      IM1      C4       CD2R5B    1.73480       11.6110           0 -0.868000       1.30000    
     10110 IM1      202      IM1      DC4      DRUD     -1.61680      0.400000           0   0.00000       0.00000    
     10111 IM1      202      IM1      H6       HDR5B    0.730000E-01   1.00800           0   0.00000       0.00000    
     10112 IM1      202      IM1      N2       ND2R5B    1.59050       13.6070           0 -0.840000       1.00000    
     10113 IM1      202      IM1      DN2      DRUD     -1.59050      0.400000           0   0.00000       0.00000    
     10114 IM1      202      IM1      H7       DUMH      0.00000       1.00800           0   0.00000       0.00000    
     10115 IM1      202      IM1      LPN21    LPD     -0.474000       0.00000          -1   0.00000       0.00000    
     10116 IM1      203      IM1      C1       CD33G     1.64330       11.6110           0  -1.08100       1.00000    
     10117 IM1      203      IM1      DC1      DRUD     -1.80430      0.400000           0   0.00000       0.00000    
     10118 IM1      203      IM1      H1       HDA3A    0.940000E-01   1.00800           0   0.00000       0.00000    
     10119 IM1      203      IM1      H2       HDA3A    0.940000E-01   1.00800           0   0.00000       0.00000    
     10120 IM1      203      IM1      H3       HDA3A    0.940000E-01   1.00800           0   0.00000       0.00000    
     10121 IM1      203      IM1      N1       ND2R5A    1.92920       13.6070           0  -1.06300       1.30000    
     10122 IM1      203      IM1      DN1      DRUD     -1.78920      0.400000           0   0.00000       0.00000    
     10123 IM1      203      IM1      C2       CD2R5A    1.66810       11.6110           0  -1.37800       1.30000    
     10124 IM1      203      IM1      DC2      DRUD     -2.03710      0.400000           0   0.00000       0.00000    
     10125 IM1      203      IM1      H4       HDR5A    0.150000       1.00800           0   0.00000       0.00000    
     10126 IM1      203      IM1      C3       CD2R5A    2.22510       11.6110           0  -1.37800       1.30000    
     10127 IM1      203      IM1      DC3      DRUD     -2.03710      0.400000           0   0.00000       0.00000    
     10128 IM1      203      IM1      H5       HDR5A    0.530000E-01   1.00800           0   0.00000       0.00000    
     10129 IM1      203      IM1      C4       CD2R5B    1.73480       11.6110           0 -0.868000       1.30000    
     10130 IM1      203      IM1      DC4      DRUD     -1.61680      0.400000           0   0.00000       0.00000    
     10131 IM1      203      IM1      H6       HDR5B    0.730000E-01   1.00800           0   0.00000       0.00000    
     10132 IM1      203      IM1      N2       ND2R5B    1.59050       13.6070           0 -0.840000       1.00000    
     10133 IM1      203      IM1      DN2      DRUD     -1.59050      0.400000           0   0.00000       0.00000    
     10134 IM1      203      IM1      H7       DUMH      0.00000       1.00800           0   0.00000       0.00000    
     10135 IM1      203      IM1      LPN21    LPD     -0.474000       0.00000          -1   0.00000       0.00000    
     10136 IM1      204      IM1      C1       CD33G     1.64330       11.6110           0  -1.08100       1.00000    
     10137 IM1      204      IM1      DC1      DRUD     -1.80430      0.400000           0   0.00000       0.00000    
     10138 IM1      204      IM1      H1       HDA3A    0.940000E-01   1.00800           0   0.00000       0.00000    
     10139 IM1      204      IM1      H2       HDA3A    0.940000E-01   1.00800           0   0.00000       0.00000    
     10140 IM1      204      IM1      H3       HDA3A    0.940000E-01   1.00800           0   0.00000       0.00000    
     10141 IM1      204      IM1      N1       ND2R5A    1.92920       13.6070           0  -1.06300       1.30000    
     10142 IM1      204      IM1      DN1      DRUD     -1.78920      0.400000           0   0.00000       0.00000    
     10143 IM1      204      IM1      C2       CD2R5A    1.66810       11.6110           0  -1.37800       1.30000    
     10144 IM1      204      IM1      DC2      DRUD     -2.03710      0.400000           0   0.00000       0.00000    
     10145 IM1      204      IM1      H4       HDR5A    0.150000       1.00800           0   0.00000       0.00000    
     10146 IM1      204      IM1      C3       CD2R5A    2.22510       11.6110           0  -1.37800       1.30000    
     10147 IM1      204      IM1      DC3      DRUD     -2.03710      0.400000           0   0.00000       0.00000    
     10148 IM1      204      IM1      H5       HDR5A    0.530000E-01   1.00800           0   0.00000       0.00000    
     10149 IM1      204      IM1      C4       CD2R5B    1.73480       11.6110           0 -0.868000       1.30000    
     10150 IM1      204      IM1      DC4      DRUD     -1.61680      0.400000           0   0.00000       0.00000    
     10151 IM1      204      IM1      H6       HDR5B    0.730000E-01   1.00800           0   0.00000       0.00000    
     10152 IM1      204      IM1      N2       ND2R5B    1.59050       13.6070           0 -0.840000       1.00000    
     10153 IM1      204      IM1      DN2      DRUD     -1.59050      0.400000           0   0.00000       0.00000    
     10154 IM1      204      IM1      H7       DUMH      0.00000       1.00800           0   0.00000       0.00000    
     10155 IM1      204      IM1      LPN21    LPD     -0.474000       0.00000          -1   0.00000       0.00000    
     10156 IM1      205      IM1      C1       CD33G     1.64330       11.6110           0  -1.08100       1.00000    
     10157 IM1      205      IM1      DC1      DRUD     -1.80430      0.400000           0   0.00000       0.00000    
     10158 IM1      205      IM1      H1       HDA3A    0.940000E-01   1.00800           0   0.00000       0.00000    
     10159 IM1      205      IM1      H2       HDA3A    0.940000E-01   1.00800           0   0.00000       0.00000    
     10160 IM1      205      IM1      H3       HDA3A    0.940000E-01   1.00800           0   0.00000       0.00000    
     10161 IM1      205      IM1      N1       ND2R5A    1.92920       13.6070           0  -1.06300       1.30000    
     10162 IM1      205      IM1      DN1      DRUD     -1.78920      0.400000           0   0.00000       0.00000    
     10163 IM1      205      IM1      C2       CD2R5A    1.66810       11.6110           0  -1.37800       1.30000    
     10164 IM1      205      IM1      DC2      DRUD     -2.03710      0.400000           0   0.00000       0.00000    
     10165 IM1      205      IM1      H4       HDR5A    0.150000       1.00800           0   0.00000       0.00000    
     10166 IM1      205      IM1      C3       CD2R5A    2.22510       11.6110           0  -1.37800       1.30000    
     10167 IM1      205      IM1      DC3      DRUD     -2.03710      0.400000           0   0.00000       0.00000    
     10168 IM1      205      IM1      H5       HDR5A    0.530000E-01   1.00800           0   0.00000       0.00000    
     10169 IM1      205      IM1      C4       CD2R5B    1.73480       11.6110           0 -0.868000       1.30000    
     10170 IM1      205      IM1      DC4      DRUD     -1.61680      0.400000           0   0.00000       0.00000    
     10171 IM1      205      IM1      H6       HDR5B    0.730000E-01   1.00800           0   0.00000       0.00000    
     10172 IM1      205      IM1      N2       ND2R5B    1.59050       13.6070           0 -0.840000       1.00000    
     10173 IM1      205      IM1      DN2      DRUD     -1.59050      0.400000           0   0.00000       0.00000    
     10174 IM1      205      IM1      H7       DUMH      0.00000       1.00800           0   0.00000       0.00000    
     10175 IM1      205      IM1      LPN21    LPD     -0.474000       0.00000          -1   0.00000       0.00000    
     10176 IM1      206      IM1      C1       CD33G     1.64330       11.6110           0  -1.08100       1.00000    
     10177 IM1      206      IM1      DC1      DRUD     -1.80430      0.400000           0   0.00000       0.00000    
     10178 IM1      206      IM1      H1       HDA3A    0.940000E-01   1.00800           0   0.00000       0.00000    
     10179 IM1      206      IM1      H2       HDA3A    0.940000E-01   1.00800           0   0.00000       0.00000    
     10180 IM1      206      IM1      H3       HDA3A    0.940000E-01   1.00800           0   0.00000       0.00000    
     10181 IM1      206      IM1      N1       ND2R5A    1.92920       13.6070           0  -1.06300       1.30000    
     10182 IM1      206      IM1      DN1      DRUD     -1.78920      0.400000           0   0.00000       0.00000    
     10183 IM1      206      IM1      C2       CD2R5A    1.66810       11.6110           0  -1.37800       1.30000    
     10184 IM1      206      IM1      DC2      DRUD     -2.03710      0.400000           0   0.00000       0.00000    
     10185 IM1      206      IM1      H4       HDR5A    0.150000       1.00800           0   0.00000       0.00000    
     10186 IM1      206      IM1      C3       CD2R5A    2.22510       11.6110           0  -1.37800       1.30000    
     10187 IM1      206      IM1      DC3      DRUD     -2.03710      0.400000           0   0.00000       0.00000    
     10188 IM1      206      IM1      H5       HDR5A    0.530000E-01   1.00800           0   0.00000       0.00000    
     10189 IM1      206      IM1      C4       CD2R5B    1.73480       11.6110           0 -0.868000       1.30000    
     10190 IM1      206      IM1      DC4      DRUD     -1.61680      0.400000           0   0.00000       0.00000    
     10191 IM1      206      IM1      H6       HDR5B    0.730000E-01   1.00800           0   0.00000       0.00000    
     10192 IM1      206      IM1      N2       ND2R5B    1.59050       13.6070           0 -0.840000       1.00000    
     10193 IM1      206      IM1      DN2      DRUD     -1.59050      0.400000           0   0.00000       0.00000    
     10194 IM1      206      IM1      H7       DUMH      0.00000       1.00800           0   0.00000       0.00000    
     10195 IM1      206      IM1      LPN21    LPD     -0.474000       0.00000          -1   0.00000       0.00000    
     10196 IM1      207      IM1      C1       CD33G     1.64330       11.6110           0  -1.08100       1.00000    
     10197 IM1      207      IM1      DC1      DRUD     -1.80430      0.400000           0   0.00000       0.00000    
     10198 IM1      207      IM1      H1       HDA3A    0.940000E-01   1.00800           0   0.00000       0.00000    
     10199 IM1      207      IM1      H2       HDA3A    0.940000E-01   1.00800           0   0.00000       0.00000    
     10200 IM1      207      IM1      H3       HDA3A    0.940000E-01   1.00800           0   0.00000       0.00000    
     10201 IM1      207      IM1      N1       ND2R5A    1.92920       13.6070           0  -1.06300       1.30000    
     10202 IM1      207      IM1      DN1      DRUD     -1.78920      0.400000           0   0.00000       0.00000    
     10203 IM1      207      IM1      C2       CD2R5A    1.66810       11.6110           0  -1.37800       1.30000    
     10204 IM1      207      IM1      DC2      DRUD     -2.03710      0.400000           0   0.00000       0.00000    
     10205 IM1      207      IM1      H4       HDR5A    0.150000       1.00800           0   0.00000       0.00000    
     10206 IM1      207      IM1      C3       CD2R5A    2.22510       11.6110           0  -1.37800       1.30000    
     10207 IM1      207      IM1      DC3      DRUD     -2.03710      0.400000           0   0.00000       0.00000    
     10208 IM1      207      IM1      H5       HDR5A    0.530000E-01   1.00800           0   0.00000       0.00000    
     10209 IM1      207      IM1      C4       CD2R5B    1.73480       11.6110           0 -0.868000       1.30000    
     10210 IM1      207      IM1      DC4      DRUD     -1.61680      0.400000           0   0.00000       0.00000    
     10211 IM1      207      IM1      H6       HDR5B    0.730000E-01   1.00800           0   0.00000       0.00000    
     10212 IM1      207      IM1      N2       ND2R5B    1.59050       13.6070           0 -0.840000       1.00000    
     10213 IM1      207      IM1      DN2      DRUD     -1.59050      0.400000           0   0.00000       0.00000    
     10214 IM1      207      IM1      H7       DUMH      0.00000       1.00800           0   0.00000       0.00000    
     10215 IM1      207      IM1      LPN21    LPD     -0.474000       0.00000          -1   0.00000       0.00000    
     10216 IM1      208      IM1      C1       CD33G     1.64330       11.6110           0  -1.08100       1.00000    
     10217 IM1      208      IM1      DC1      DRUD     -1.80430      0.400000           0   0.00000       0.00000    
     10218 IM1      208      IM1      H1       HDA3A    0.940000E-01   1.00800           0   0.00000       0.00000    
     10219 IM1      208      IM1      H2       HDA3A    0.940000E-01   1.00800           0   0.00000       0.00000    
     10220 IM1      208      IM1      H3       HDA3A    0.940000E-01   1.00800           0   0.00000       0.00000    
     10221 IM1      208      IM1      N1       ND2R5A    1.92920       13.6070           0  -1.06300       1.30000    
     10222 IM1      208      IM1      DN1      DRUD     -1.78920      0.400000           0   0.00000       0.00000    
     10223 IM1      208      IM1      C2       CD2R5A    1.66810       11.6110           0  -1.37800       1.30000    
     10224 IM1      208      IM1      DC2      DRUD     -2.03710      0.400000           0   0.00000       0.00000    
     10225 IM1      208      IM1      H4       HDR5A    0.150000       1.00800           0   0.00000       0.00000    
     10226 IM1      208      IM1      C3       CD2R5A    2.22510       11.6110           0  -1.37800       1.30000    
     10227 IM1      208      IM1      DC3      DRUD     -2.03710      0.400000           0   0.00000       0.00000    
     10228 IM1      208      IM1      H5       HDR5A    0.530000E-01   1.00800           0   0.00000       0.00000    
     10229 IM1      208      IM1      C4       CD2R5B    1.73480       11.6110           0 -0.868000       1.30000    
     10230 IM1      208      IM1      DC4      DRUD     -1.61680      0.400000           0   0.00000       0.00000    
     10231 IM1      208      IM1      H6       HDR5B    0.730000E-01   1.00800           0   0.00000       0.00000    
     10232 IM1      208      IM1      N2       ND2R5B    1.59050       13.6070           0 -0.840000       1.00000    
     10233 IM1      208      IM1      DN2      DRUD     -1.59050      0.400000           0   0.00000       0.00000    
     10234 IM1      208      IM1      H7       DUMH      0.00000       1.00800           0   0.00000       0.00000    
     10235 IM1      208      IM1      LPN21    LPD     -0.474000       0.00000          -1   0.00000       0.00000    
     10236 IM1      209      IM1      C1       CD33G     1.64330       11.6110           0  -1.08100       1.00000    
     10237 IM1      209      IM1      DC1      DRUD     -1.80430      0.400000           0   0.00000       0.00000    
     10238 IM1      209      IM1      H1       HDA3A    0.940000E-01   1.00800           0   0.00000       0.00000    
     10239 IM1      209      IM1      H2       HDA3A    0.940000E-01   1.00800           0   0.00000       0.00000    
     10240 IM1      209      IM1      H3       HDA3A    0.940000E-01   1.00800           0   0.00000       0.00000    
     10241 IM1      209      IM1      N1       ND2R5A    1.92920       13.6070           0  -1.06300       1.30000    
     10242 IM1      209      IM1      DN1      DRUD     -1.78920      0.400000           0   0.00000       0.00000    
     10243 IM1      209      IM1      C2       CD2R5A    1.66810       11.6110           0  -1.37800       1.30000    
     10244 IM1      209      IM1      DC2      DRUD     -2.03710      0.400000           0   0.00000       0.00000    
     10245 IM1      209      IM1      H4       HDR5A    0.150000       1.00800           0   0.00000       0.00000    
     10246 IM1      209      IM1      C3       CD2R5A    2.22510       11.6110           0  -1.37800       1.30000    
     10247 IM1      209      IM1      DC3      DRUD     -2.03710      0.400000           0   0.00000       0.00000    
     10248 IM1      209      IM1      H5       HDR5A    0.530000E-01   1.00800           0   0.00000       0.00000    
     10249 IM1      209      IM1      C4       CD2R5B    1.73480       11.6110           0 -0.868000       1.30000    
     10250 IM1      209      IM1      DC4      DRUD     -1.61680      0.400000           0   0.00000       0.00000    
     10251 IM1      209      IM1      H6       HDR5B    0.730000E-01   1.00800           0   0.00000       0.00000    
     10252 IM1      209      IM1      N2       ND2R5B    1.59050       13.6070           0 -0.840000       1.00000    
     10253 IM1      209      IM1      DN2      DRUD     -1.59050      0.400000           0   0.00000       0.00000    
     10254 IM1      209      IM1      H7       DUMH      0.00000       1.00800           0   0.00000       0.00000    
     10255 IM1      209      IM1      LPN21    LPD     -0.474000       0.00000          -1   0.00000       0.00000    
     10256 IM1      210      IM1      C1       CD33G     1.64330       11.6110           0  -1.08100       1.00000    
     10257 IM1      210      IM1      DC1      DRUD     -1.80430      0.400000           0   0.00000       0.00000    
     10258 IM1      210      IM1      H1       HDA3A    0.940000E-01   1.00800           0   0.00000       0.00000    
     10259 IM1      210      IM1      H2       HDA3A    0.940000E-01   1.00800           0   0.00000       0.00000    
     10260 IM1      210      IM1      H3       HDA3A    0.940000E-01   1.00800           0   0.00000       0.00000    
     10261 IM1      210      IM1      N1       ND2R5A    1.92920       13.6070           0  -1.06300       1.30000    
     10262 IM1      210      IM1      DN1      DRUD     -1.78920      0.400000           0   0.00000       0.00000    
     10263 IM1      210      IM1      C2       CD2R5A    1.66810       11.6110           0  -1.37800       1.30000    
     10264 IM1      210      IM1      DC2      DRUD     -2.03710      0.400000           0   0.00000       0.00000    
     10265 IM1      210      IM1      H4       HDR5A    0.150000       1.00800           0   0.00000       0.00000    
     10266 IM1      210      IM1      C3       CD2R5A    2.22510       11.6110           0  -1.37800       1.30000    
     10267 IM1      210      IM1      DC3      DRUD     -2.03710      0.400000           0   0.00000       0.00000    
     10268 IM1      210      IM1      H5       HDR5A    0.530000E-01   1.00800           0   0.00000       0.00000    
     10269 IM1      210      IM1      C4       CD2R5B    1.73480       11.6110           0 -0.868000       1.30000    
     10270 IM1      210      IM1      DC4      DRUD     -1.61680      0.400000           0   0.00000       0.00000    
     10271 IM1      210      IM1      H6       HDR5B    0.730000E-01   1.00800           0   0.00000       0.00000    
     10272 IM1      210      IM1      N2       ND2R5B    1.59050       13.6070           0 -0.840000       1.00000    
     10273 IM1      210      IM1      DN2      DRUD     -1.59050      0.400000           0   0.00000       0.00000    
     10274 IM1      210      IM1      H7       DUMH      0.00000       1.00800           0   0.00000       0.00000    
     10275 IM1      210      IM1      LPN21    LPD     -0.474000       0.00000          -1   0.00000       0.00000    
     10276 IM1      211      IM1      C1       CD33G     1.64330       11.6110           0  -1.08100       1.00000    
     10277 IM1      211      IM1      DC1      DRUD     -1.80430      0.400000           0   0.00000       0.00000    
     10278 IM1      211      IM1      H1       HDA3A    0.940000E-01   1.00800           0   0.00000       0.00000    
     10279 IM1      211      IM1      H2       HDA3A    0.940000E-01   1.00800           0   0.00000       0.00000    
     10280 IM1      211      IM1      H3       HDA3A    0.940000E-01   1.00800           0   0.00000       0.00000    
     10281 IM1      211      IM1      N1       ND2R5A    1.92920       13.6070           0  -1.06300       1.30000    
     10282 IM1      211      IM1      DN1      DRUD     -1.78920      0.400000           0   0.00000       0.00000    
     10283 IM1      211      IM1      C2       CD2R5A    1.66810       11.6110           0  -1.37800       1.30000    
     10284 IM1      211      IM1      DC2      DRUD     -2.03710      0.400000           0   0.00000       0.00000    
     10285 IM1      211      IM1      H4       HDR5A    0.150000       1.00800           0   0.00000       0.00000    
     10286 IM1      211      IM1      C3       CD2R5A    2.22510       11.6110           0  -1.37800       1.30000    
     10287 IM1      211      IM1      DC3      DRUD     -2.03710      0.400000           0   0.00000       0.00000    
     10288 IM1      211      IM1      H5       HDR5A    0.530000E-01   1.00800           0   0.00000       0.00000    
     10289 IM1      211      IM1      C4       CD2R5B    1.73480       11.6110           0 -0.868000       1.30000    
     10290 IM1      211      IM1      DC4      DRUD     -1.61680      0.400000           0   0.00000       0.00000    
     10291 IM1      211      IM1      H6       HDR5B    0.730000E-01   1.00800           0   0.00000       0.00000    
     10292 IM1      211      IM1      N2       ND2R5B    1.59050       13.6070           0 -0.840000       1.00000    
     10293 IM1      211      IM1      DN2      DRUD     -1.59050      0.400000           0   0.00000       0.00000    
     10294 IM1      211      IM1      H7       DUMH      0.00000       1.00800           0   0.00000       0.00000    
     10295 IM1      211      IM1      LPN21    LPD     -0.474000       0.00000          -1   0.00000       0.00000    
     10296 IM1      212      IM1      C1       CD33G     1.64330       11.6110           0  -1.08100       1.00000    
     10297 IM1      212      IM1      DC1      DRUD     -1.80430      0.400000           0   0.00000       0.00000    
     10298 IM1      212      IM1      H1       HDA3A    0.940000E-01   1.00800           0   0.00000       0.00000    
     10299 IM1      212      IM1      H2       HDA3A    0.940000E-01   1.00800           0   0.00000       0.00000    
     10300 IM1      212      IM1      H3       HDA3A    0.940000E-01   1.00800           0   0.00000       0.00000    
     10301 IM1      212      IM1      N1       ND2R5A    1.92920       13.6070           0  -1.06300       1.30000    
     10302 IM1      212      IM1      DN1      DRUD     -1.78920      0.400000           0   0.00000       0.00000    
     10303 IM1      212      IM1      C2       CD2R5A    1.66810       11.6110           0  -1.37800       1.30000    
     10304 IM1      212      IM1      DC2      DRUD     -2.03710      0.400000           0   0.00000       0.00000    
     10305 IM1      212      IM1      H4       HDR5A    0.150000       1.00800           0   0.00000       0.00000    
     10306 IM1      212      IM1      C3       CD2R5A    2.22510       11.6110           0  -1.37800       1.30000    
     10307 IM1      212      IM1      DC3      DRUD     -2.03710      0.400000           0   0.00000       0.00000    
     10308 IM1      212      IM1      H5       HDR5A    0.530000E-01   1.00800           0   0.00000       0.00000    
     10309 IM1      212      IM1      C4       CD2R5B    1.73480       11.6110           0 -0.868000       1.30000    
     10310 IM1      212      IM1      DC4      DRUD     -1.61680      0.400000           0   0.00000       0.00000    
     10311 IM1      212      IM1      H6       HDR5B    0.730000E-01   1.00800           0   0.00000       0.00000    
     10312 IM1      212      IM1      N2       ND2R5B    1.59050       13.6070           0 -0.840000       1.00000    
     10313 IM1      212      IM1      DN2      DRUD     -1.59050      0.400000           0   0.00000       0.00000    
     10314 IM1      212      IM1      H7       DUMH      0.00000       1.00800           0   0.00000       0.00000    
     10315 IM1      212      IM1      LPN21    LPD     -0.474000       0.00000          -1   0.00000       0.00000    
     10316 IM1      213      IM1      C1       CD33G     1.64330       11.6110           0  -1.08100       1.00000    
     10317 IM1      213      IM1      DC1      DRUD     -1.80430      0.400000           0   0.00000       0.00000    
     10318 IM1      213      IM1      H1       HDA3A    0.940000E-01   1.00800           0   0.00000       0.00000    
     10319 IM1      213      IM1      H2       HDA3A    0.940000E-01   1.00800           0   0.00000       0.00000    
     10320 IM1      213      IM1      H3       HDA3A    0.940000E-01   1.00800           0   0.00000       0.00000    
     10321 IM1      213      IM1      N1       ND2R5A    1.92920       13.6070           0  -1.06300       1.30000    
     10322 IM1      213      IM1      DN1      DRUD     -1.78920      0.400000           0   0.00000       0.00000    
     10323 IM1      213      IM1      C2       CD2R5A    1.66810       11.6110           0  -1.37800       1.30000    
     10324 IM1      213      IM1      DC2      DRUD     -2.03710      0.400000           0   0.00000       0.00000    
     10325 IM1      213      IM1      H4       HDR5A    0.150000       1.00800           0   0.00000       0.00000    
     10326 IM1      213      IM1      C3       CD2R5A    2.22510       11.6110           0  -1.37800       1.30000    
     10327 IM1      213      IM1      DC3      DRUD     -2.03710      0.400000           0   0.00000       0.00000    
     10328 IM1      213      IM1      H5       HDR5A    0.530000E-01   1.00800           0   0.00000       0.00000    
     10329 IM1      213      IM1      C4       CD2R5B    1.73480       11.6110           0 -0.868000       1.30000    
     10330 IM1      213      IM1      DC4      DRUD     -1.61680      0.400000           0   0.00000       0.00000    
     10331 IM1      213      IM1      H6       HDR5B    0.730000E-01   1.00800           0   0.00000       0.00000    
     10332 IM1      213      IM1      N2       ND2R5B    1.59050       13.6070           0 -0.840000       1.00000    
     10333 IM1      213      IM1      DN2      DRUD     -1.59050      0.400000           0   0.00000       0.00000    
     10334 IM1      213      IM1      H7       DUMH      0.00000       1.00800           0   0.00000       0.00000    
     10335 IM1      213      IM1      LPN21    LPD     -0.474000       0.00000          -1   0.00000       0.00000    
     10336 IM1      214      IM1      C1       CD33G     1.64330       11.6110           0  -1.08100       1.00000    
     10337 IM1      214      IM1      DC1      DRUD     -1.80430      0.400000           0   0.00000       0.00000    
     10338 IM1      214      IM1      H1       HDA3A    0.940000E-01   1.00800           0   0.00000       0.00000    
     10339 IM1      214      IM1      H2       HDA3A    0.940000E-01   1.00800           0   0.00000       0.00000    
     10340 IM1      214      IM1      H3       HDA3A    0.940000E-01   1.00800           0   0.00000       0.00000    
     10341 IM1      214      IM1      N1       ND2R5A    1.92920       13.6070           0  -1.06300       1.30000    
     10342 IM1      214      IM1      DN1      DRUD     -1.78920      0.400000           0   0.00000       0.00000    
     10343 IM1      214      IM1      C2       CD2R5A    1.66810       11.6110           0  -1.37800       1.30000    
     10344 IM1      214      IM1      DC2      DRUD     -2.03710      0.400000           0   0.00000       0.00000    
     10345 IM1      214      IM1      H4       HDR5A    0.150000       1.00800           0   0.00000       0.00000    
     10346 IM1      214      IM1      C3       CD2R5A    2.22510       11.6110           0  -1.37800       1.30000    
     10347 IM1      214      IM1      DC3      DRUD     -2.03710      0.400000           0   0.00000       0.00000    
     10348 IM1      214      IM1      H5       HDR5A    0.530000E-01   1.00800           0   0.00000       0.00000    
     10349 IM1      214      IM1      C4       CD2R5B    1.73480       11.6110           0 -0.868000       1.30000    
     10350 IM1      214      IM1      DC4      DRUD     -1.61680      0.400000           0   0.00000       0.00000    
     10351 IM1      214      IM1      H6       HDR5B    0.730000E-01   1.00800           0   0.00000       0.00000    
     10352 IM1      214      IM1      N2       ND2R5B    1.59050       13.6070           0 -0.840000       1.00000    
     10353 IM1      214      IM1      DN2      DRUD     -1.59050      0.400000           0   0.00000       0.00000    
     10354 IM1      214      IM1      H7       DUMH      0.00000       1.00800           0   0.00000       0.00000    
     10355 IM1      214      IM1      LPN21    LPD     -0.474000       0.00000          -1   0.00000       0.00000    
     10356 IM1      215      IM1      C1       CD33G     1.64330       11.6110           0  -1.08100       1.00000    
     10357 IM1      215      IM1      DC1      DRUD     -1.80430      0.400000           0   0.00000       0.00000    
     10358 IM1      215      IM1      H1       HDA3A    0.940000E-01   1.00800           0   0.00000       0.00000    
     10359 IM1      215      IM1      H2       HDA3A    0.940000E-01   1.00800           0   0.00000       0.00000    
     10360 IM1      215      IM1      H3       HDA3A    0.940000E-01   1.00800           0   0.00000       0.00000    
     10361 IM1      215      IM1      N1       ND2R5A    1.92920       13.6070           0  -1.06300       1.30000    
     10362 IM1      215      IM1      DN1      DRUD     -1.78920      0.400000           0   0.00000       0.00000    
     10363 IM1      215      IM1      C2       CD2R5A    1.66810       11.6110           0  -1.37800       1.30000    
     10364 IM1      215      IM1      DC2      DRUD     -2.03710      0.400000           0   0.00000       0.00000    
     10365 IM1      215      IM1      H4       HDR5A    0.150000       1.00800           0   0.00000       0.00000    
     10366 IM1      215      IM1      C3       CD2R5A    2.22510       11.6110           0  -1.37800       1.30000    
     10367 IM1      215      IM1      DC3      DRUD     -2.03710      0.400000           0   0.00000       0.00000    
     10368 IM1      215      IM1      H5       HDR5A    0.530000E-01   1.00800           0   0.00000       0.00000    
     10369 IM1      215      IM1      C4       CD2R5B    1.73480       11.6110           0 -0.868000       1.30000    
     10370 IM1      215      IM1      DC4      DRUD     -1.61680      0.400000           0   0.00000       0.00000    
     10371 IM1      215      IM1      H6       HDR5B    0.730000E-01   1.00800           0   0.00000       0.00000    
     10372 IM1      215      IM1      N2       ND2R5B    1.59050       13.6070           0 -0.840000       1.00000    
     10373 IM1      215      IM1      DN2      DRUD     -1.59050      0.400000           0   0.00000       0.00000    
     10374 IM1      215      IM1      H7       DUMH      0.00000       1.00800           0   0.00000       0.00000    
     10375 IM1      215      IM1      LPN21    LPD     -0.474000       0.00000          -1   0.00000       0.00000    
     10376 IM1      216      IM1      C1       CD33G     1.64330       11.6110           0  -1.08100       1.00000    
     10377 IM1      216      IM1      DC1      DRUD     -1.80430      0.400000           0   0.00000       0.00000    
     10378 IM1      216      IM1      H1       HDA3A    0.940000E-01   1.00800           0   0.00000       0.00000    
     10379 IM1      216      IM1      H2       HDA3A    0.940000E-01   1.00800           0   0.00000       0.00000    
     10380 IM1      216      IM1      H3       HDA3A    0.940000E-01   1.00800           0   0.00000       0.00000    
     10381 IM1      216      IM1      N1       ND2R5A    1.92920       13.6070           0  -1.06300       1.30000    
     10382 IM1      216      IM1      DN1      DRUD     -1.78920      0.400000           0   0.00000       0.00000    
     10383 IM1      216      IM1      C2       CD2R5A    1.66810       11.6110           0  -1.37800       1.30000    
     10384 IM1      216      IM1      DC2      DRUD     -2.03710      0.400000           0   0.00000       0.00000    
     10385 IM1      216      IM1      H4       HDR5A    0.150000       1.00800           0   0.00000       0.00000    
     10386 IM1      216      IM1      C3       CD2R5A    2.22510       11.6110           0  -1.37800       1.30000    
     10387 IM1      216      IM1      DC3      DRUD     -2.03710      0.400000           0   0.00000       0.00000    
     10388 IM1      216      IM1      H5       HDR5A    0.530000E-01   1.00800           0   0.00000       0.00000    
     10389 IM1      216      IM1      C4       CD2R5B    1.73480       11.6110           0 -0.868000       1.30000    
     10390 IM1      216      IM1      DC4      DRUD     -1.61680      0.400000           0   0.00000       0.00000    
     10391 IM1      216      IM1      H6       HDR5B    0.730000E-01   1.00800           0   0.00000       0.00000    
     10392 IM1      216      IM1      N2       ND2R5B    1.59050       13.6070           0 -0.840000       1.00000    
     10393 IM1      216      IM1      DN2      DRUD     -1.59050      0.400000           0   0.00000       0.00000    
     10394 IM1      216      IM1      H7       DUMH      0.00000       1.00800           0   0.00000       0.00000    
     10395 IM1      216      IM1      LPN21    LPD     -0.474000       0.00000          -1   0.00000       0.00000    
     10396 IM1      217      IM1      C1       CD33G     1.64330       11.6110           0  -1.08100       1.00000    
     10397 IM1      217      IM1      DC1      DRUD     -1.80430      0.400000           0   0.00000       0.00000    
     10398 IM1      217      IM1      H1       HDA3A    0.940000E-01   1.00800           0   0.00000       0.00000    
     10399 IM1      217      IM1      H2       HDA3A    0.940000E-01   1.00800           0   0.00000       0.00000    
     10400 IM1      217      IM1      H3       HDA3A    0.940000E-01   1.00800           0   0.00000       0.00000    
     10401 IM1      217      IM1      N1       ND2R5A    1.92920       13.6070           0  -1.06300       1.30000    
     10402 IM1      217      IM1      DN1      DRUD     -1.78920      0.400000           0   0.00000       0.00000    
     10403 IM1      217      IM1      C2       CD2R5A    1.66810       11.6110           0  -1.37800       1.30000    
     10404 IM1      217      IM1      DC2      DRUD     -2.03710      0.400000           0   0.00000       0.00000    
     10405 IM1      217      IM1      H4       HDR5A    0.150000       1.00800           0   0.00000       0.00000    
     10406 IM1      217      IM1      C3       CD2R5A    2.22510       11.6110           0  -1.37800       1.30000    
     10407 IM1      217      IM1      DC3      DRUD     -2.03710      0.400000           0   0.00000       0.00000    
     10408 IM1      217      IM1      H5       HDR5A    0.530000E-01   1.00800           0   0.00000       0.00000    
     10409 IM1      217      IM1      C4       CD2R5B    1.73480       11.6110           0 -0.868000       1.30000    
     10410 IM1      217      IM1      DC4      DRUD     -1.61680      0.400000           0   0.00000       0.00000    
     10411 IM1      217      IM1      H6       HDR5B    0.730000E-01   1.00800           0   0.00000       0.00000    
     10412 IM1      217      IM1      N2       ND2R5B    1.59050       13.6070           0 -0.840000       1.00000    
     10413 IM1      217      IM1      DN2      DRUD     -1.59050      0.400000           0   0.00000       0.00000    
     10414 IM1      217      IM1      H7       DUMH      0.00000       1.00800           0   0.00000       0.00000    
     10415 IM1      217      IM1      LPN21    LPD     -0.474000       0.00000          -1   0.00000       0.00000    
     10416 IM1      218      IM1      C1       CD33G     1.64330       11.6110           0  -1.08100       1.00000    
     10417 IM1      218      IM1      DC1      DRUD     -1.80430      0.400000           0   0.00000       0.00000    
     10418 IM1      218      IM1      H1       HDA3A    0.940000E-01   1.00800           0   0.00000       0.00000    
     10419 IM1      218      IM1      H2       HDA3A    0.940000E-01   1.00800           0   0.00000       0.00000    
     10420 IM1      218      IM1      H3       HDA3A    0.940000E-01   1.00800           0   0.00000       0.00000    
     10421 IM1      218      IM1      N1       ND2R5A    1.92920       13.6070           0  -1.06300       1.30000    
     10422 IM1      218      IM1      DN1      DRUD     -1.78920      0.400000           0   0.00000       0.00000    
     10423 IM1      218      IM1      C2       CD2R5A    1.66810       11.6110           0  -1.37800       1.30000    
     10424 IM1      218      IM1      DC2      DRUD     -2.03710      0.400000           0   0.00000       0.00000    
     10425 IM1      218      IM1      H4       HDR5A    0.150000       1.00800           0   0.00000       0.00000    
     10426 IM1      218      IM1      C3       CD2R5A    2.22510       11.6110           0  -1.37800       1.30000    
     10427 IM1      218      IM1      DC3      DRUD     -2.03710      0.400000           0   0.00000       0.00000    
     10428 IM1      218      IM1      H5       HDR5A    0.530000E-01   1.00800           0   0.00000       0.00000    
     10429 IM1      218      IM1      C4       CD2R5B    1.73480       11.6110           0 -0.868000       1.30000    
     10430 IM1      218      IM1      DC4      DRUD     -1.61680      0.400000           0   0.00000       0.00000    
     10431 IM1      218      IM1      H6       HDR5B    0.730000E-01   1.00800           0   0.00000       0.00000    
     10432 IM1      218      IM1      N2       ND2R5B    1.59050       13.6070           0 -0.840000       1.00000    
     10433 IM1      218      IM1      DN2      DRUD     -1.59050      0.400000           0   0.00000       0.00000    
     10434 IM1      218      IM1      H7       DUMH      0.00000       1.00800           0   0.00000       0.00000    
     10435 IM1      218      IM1      LPN21    LPD     -0.474000       0.00000          -1   0.00000       0.00000    
     10436 IM1      219      IM1      C1       CD33G     1.64330       11.6110           0  -1.08100       1.00000    
     10437 IM1      219      IM1      DC1      DRUD     -1.80430      0.400000           0   0.00000       0.00000    
     10438 IM1      219      IM1      H1       HDA3A    0.940000E-01   1.00800           0   0.00000       0.00000    
     10439 IM1      219      IM1      H2       HDA3A    0.940000E-01   1.00800           0   0.00000       0.00000    
     10440 IM1      219      IM1      H3       HDA3A    0.940000E-01   1.00800           0   0.00000       0.00000    
     10441 IM1      219      IM1      N1       ND2R5A    1.92920       13.6070           0  -1.06300       1.30000    
     10442 IM1      219      IM1      DN1      DRUD     -1.78920      0.400000           0   0.00000       0.00000    
     10443 IM1      219      IM1      C2       CD2R5A    1.66810       11.6110           0  -1.37800       1.30000    
     10444 IM1      219      IM1      DC2      DRUD     -2.03710      0.400000           0   0.00000       0.00000    
     10445 IM1      219      IM1      H4       HDR5A    0.150000       1.00800           0   0.00000       0.00000    
     10446 IM1      219      IM1      C3       CD2R5A    2.22510       11.6110           0  -1.37800       1.30000    
     10447 IM1      219      IM1      DC3      DRUD     -2.03710      0.400000           0   0.00000       0.00000    
     10448 IM1      219      IM1      H5       HDR5A    0.530000E-01   1.00800           0   0.00000       0.00000    
     10449 IM1      219      IM1      C4       CD2R5B    1.73480       11.6110           0 -0.868000       1.30000    
     10450 IM1      219      IM1      DC4      DRUD     -1.61680      0.400000           0   0.00000       0.00000    
     10451 IM1      219      IM1      H6       HDR5B    0.730000E-01   1.00800           0   0.00000       0.00000    
     10452 IM1      219      IM1      N2       ND2R5B    1.59050       13.6070           0 -0.840000       1.00000    
     10453 IM1      219      IM1      DN2      DRUD     -1.59050      0.400000           0   0.00000       0.00000    
     10454 IM1      219      IM1      H7       DUMH      0.00000       1.00800           0   0.00000       0.00000    
     10455 IM1      219      IM1      LPN21    LPD     -0.474000       0.00000          -1   0.00000       0.00000    
     10456 IM1      220      IM1      C1       CD33G     1.64330       11.6110           0  -1.08100       1.00000    
     10457 IM1      220      IM1      DC1      DRUD     -1.80430      0.400000           0   0.00000       0.00000    
     10458 IM1      220      IM1      H1       HDA3A    0.940000E-01   1.00800           0   0.00000       0.00000    
     10459 IM1      220      IM1      H2       HDA3A    0.940000E-01   1.00800           0   0.00000       0.00000    
     10460 IM1      220      IM1      H3       HDA3A    0.940000E-01   1.00800           0   0.00000       0.00000    
     10461 IM1      220      IM1      N1       ND2R5A    1.92920       13.6070           0  -1.06300       1.30000    
     10462 IM1      220      IM1      DN1      DRUD     -1.78920      0.400000           0   0.00000       0.00000    
     10463 IM1      220      IM1      C2       CD2R5A    1.66810       11.6110           0  -1.37800       1.30000    
     10464 IM1      220      IM1      DC2      DRUD     -2.03710      0.400000           0   0.00000       0.00000    
     10465 IM1      220      IM1      H4       HDR5A    0.150000       1.00800           0   0.00000       0.00000    
     10466 IM1      220      IM1      C3       CD2R5A    2.22510       11.6110           0  -1.37800       1.30000    
     10467 IM1      220      IM1      DC3      DRUD     -2.03710      0.400000           0   0.00000       0.00000    
     10468 IM1      220      IM1      H5       HDR5A    0.530000E-01   1.00800           0   0.00000       0.00000    
     10469 IM1      220      IM1      C4       CD2R5B    1.73480       11.6110           0 -0.868000       1.30000    
     10470 IM1      220      IM1      DC4      DRUD     -1.61680      0.400000           0   0.00000       0.00000    
     10471 IM1      220      IM1      H6       HDR5B    0.730000E-01   1.00800           0   0.00000       0.00000    
     10472 IM1      220      IM1      N2       ND2R5B    1.59050       13.6070           0 -0.840000       1.00000    
     10473 IM1      220      IM1      DN2      DRUD     -1.59050      0.400000           0   0.00000       0.00000    
     10474 IM1      220      IM1      H7       DUMH      0.00000       1.00800           0   0.00000       0.00000    
     10475 IM1      220      IM1      LPN21    LPD     -0.474000       0.00000          -1   0.00000       0.00000    
     10476 IM1      221      IM1      C1       CD33G     1.64330       11.6110           0  -1.08100       1.00000    
     10477 IM1      221      IM1      DC1      DRUD     -1.80430      0.400000           0   0.00000       0.00000    
     10478 IM1      221      IM1      H1       HDA3A    0.940000E-01   1.00800           0   0.00000       0.00000    
     10479 IM1      221      IM1      H2       HDA3A    0.940000E-01   1.00800           0   0.00000       0.00000    
     10480 IM1      221      IM1      H3       HDA3A    0.940000E-01   1.00800           0   0.00000       0.00000    
     10481 IM1      221      IM1      N1       ND2R5A    1.92920       13.6070           0  -1.06300       1.30000    
     10482 IM1      221      IM1      DN1      DRUD     -1.78920      0.400000           0   0.00000       0.00000    
     10483 IM1      221      IM1      C2       CD2R5A    1.66810       11.6110           0  -1.37800       1.30000    
     10484 IM1      221      IM1      DC2      DRUD     -2.03710      0.400000           0   0.00000       0.00000    
     10485 IM1      221      IM1      H4       HDR5A    0.150000       1.00800           0   0.00000       0.00000    
     10486 IM1      221      IM1      C3       CD2R5A    2.22510       11.6110           0  -1.37800       1.30000    
     10487 IM1      221      IM1      DC3      DRUD     -2.03710      0.400000           0   0.00000       0.00000    
     10488 IM1      221      IM1      H5       HDR5A    0.530000E-01   1.00800           0   0.00000       0.00000    
     10489 IM1      221      IM1      C4       CD2R5B    1.73480       11.6110           0 -0.868000       1.30000    
     10490 IM1      221      IM1      DC4      DRUD     -1.61680      0.400000           0   0.00000       0.00000    
     10491 IM1      221      IM1      H6       HDR5B    0.730000E-01   1.00800           0   0.00000       0.00000    
     10492 IM1      221      IM1      N2       ND2R5B    1.59050       13.6070           0 -0.840000       1.00000    
     10493 IM1      221      IM1      DN2      DRUD     -1.59050      0.400000           0   0.00000       0.00000    
     10494 IM1      221      IM1      H7       DUMH      0.00000       1.00800           0   0.00000       0.00000    
     10495 IM1      221      IM1      LPN21    LPD     -0.474000       0.00000          -1   0.00000       0.00000    
     10496 IM1      222      IM1      C1       CD33G     1.64330       11.6110           0  -1.08100       1.00000    
     10497 IM1      222      IM1      DC1      DRUD     -1.80430      0.400000           0   0.00000       0.00000    
     10498 IM1      222      IM1      H1       HDA3A    0.940000E-01   1.00800           0   0.00000       0.00000    
     10499 IM1      222      IM1      H2       HDA3A    0.940000E-01   1.00800           0   0.00000       0.00000    
     10500 IM1      222      IM1      H3       HDA3A    0.940000E-01   1.00800           0   0.00000       0.00000    
     10501 IM1      222      IM1      N1       ND2R5A    1.92920       13.6070           0  -1.06300       1.30000    
     10502 IM1      222      IM1      DN1      DRUD     -1.78920      0.400000           0   0.00000       0.00000    
     10503 IM1      222      IM1      C2       CD2R5A    1.66810       11.6110           0  -1.37800       1.30000    
     10504 IM1      222      IM1      DC2      DRUD     -2.03710      0.400000           0   0.00000       0.00000    
     10505 IM1      222      IM1      H4       HDR5A    0.150000       1.00800           0   0.00000       0.00000    
     10506 IM1      222      IM1      C3       CD2R5A    2.22510       11.6110           0  -1.37800       1.30000    
     10507 IM1      222      IM1      DC3      DRUD     -2.03710      0.400000           0   0.00000       0.00000    
     10508 IM1      222      IM1      H5       HDR5A    0.530000E-01   1.00800           0   0.00000       0.00000    
     10509 IM1      222      IM1      C4       CD2R5B    1.73480       11.6110           0 -0.868000       1.30000    
     10510 IM1      222      IM1      DC4      DRUD     -1.61680      0.400000           0   0.00000       0.00000    
     10511 IM1      222      IM1      H6       HDR5B    0.730000E-01   1.00800           0   0.00000       0.00000    
     10512 IM1      222      IM1      N2       ND2R5B    1.59050       13.6070           0 -0.840000       1.00000    
     10513 IM1      222      IM1      DN2      DRUD     -1.59050      0.400000           0   0.00000       0.00000    
     10514 IM1      222      IM1      H7       DUMH      0.00000       1.00800           0   0.00000       0.00000    
     10515 IM1      222      IM1      LPN21    LPD     -0.474000       0.00000          -1   0.00000       0.00000    
     10516 IM1      223      IM1      C1       CD33G     1.64330       11.6110           0  -1.08100       1.00000    
     10517 IM1      223      IM1      DC1      DRUD     -1.80430      0.400000           0   0.00000       0.00000    
     10518 IM1      223      IM1      H1       HDA3A    0.940000E-01   1.00800           0   0.00000       0.00000    
     10519 IM1      223      IM1      H2       HDA3A    0.940000E-01   1.00800           0   0.00000       0.00000    
     10520 IM1      223      IM1      H3       HDA3A    0.940000E-01   1.00800           0   0.00000       0.00000    
     10521 IM1      223      IM1      N1       ND2R5A    1.92920       13.6070           0  -1.06300       1.30000    
     10522 IM1      223      IM1      DN1      DRUD     -1.78920      0.400000           0   0.00000       0.00000    
     10523 IM1      223      IM1      C2       CD2R5A    1.66810       11.6110           0  -1.37800       1.30000    
     10524 IM1      223      IM1      DC2      DRUD     -2.03710      0.400000           0   0.00000       0.00000    
     10525 IM1      223      IM1      H4       HDR5A    0.150000       1.00800           0   0.00000       0.00000    
     10526 IM1      223      IM1      C3       CD2R5A    2.22510       11.6110           0  -1.37800       1.30000    
     10527 IM1      223      IM1      DC3      DRUD     -2.03710      0.400000           0   0.00000       0.00000    
     10528 IM1      223      IM1      H5       HDR5A    0.530000E-01   1.00800           0   0.00000       0.00000    
     10529 IM1      223      IM1      C4       CD2R5B    1.73480       11.6110           0 -0.868000       1.30000    
     10530 IM1      223      IM1      DC4      DRUD     -1.61680      0.400000           0   0.00000       0.00000    
     10531 IM1      223      IM1      H6       HDR5B    0.730000E-01   1.00800           0   0.00000       0.00000    
     10532 IM1      223      IM1      N2       ND2R5B    1.59050       13.6070           0 -0.840000       1.00000    
     10533 IM1      223      IM1      DN2      DRUD     -1.59050      0.400000           0   0.00000       0.00000    
     10534 IM1      223      IM1      H7       DUMH      0.00000       1.00800           0   0.00000       0.00000    
     10535 IM1      223      IM1      LPN21    LPD     -0.474000       0.00000          -1   0.00000       0.00000    
     10536 IM1      224      IM1      C1       CD33G     1.64330       11.6110           0  -1.08100       1.00000    
     10537 IM1      224      IM1      DC1      DRUD     -1.80430      0.400000           0   0.00000       0.00000    
     10538 IM1      224      IM1      H1       HDA3A    0.940000E-01   1.00800           0   0.00000       0.00000    
     10539 IM1      224      IM1      H2       HDA3A    0.940000E-01   1.00800           0   0.00000       0.00000    
     10540 IM1      224      IM1      H3       HDA3A    0.940000E-01   1.00800           0   0.00000       0.00000    
     10541 IM1      224      IM1      N1       ND2R5A    1.92920       13.6070           0  -1.06300       1.30000    
     10542 IM1      224      IM1      DN1      DRUD     -1.78920      0.400000           0   0.00000       0.00000    
     10543 IM1      224      IM1      C2       CD2R5A    1.66810       11.6110           0  -1.37800       1.30000    
     10544 IM1      224      IM1      DC2      DRUD     -2.03710      0.400000           0   0.00000       0.00000    
     10545 IM1      224      IM1      H4       HDR5A    0.150000       1.00800           0   0.00000       0.00000    
     10546 IM1      224      IM1      C3       CD2R5A    2.22510       11.6110           0  -1.37800       1.30000    
     10547 IM1      224      IM1      DC3      DRUD     -2.03710      0.400000           0   0.00000       0.00000    
     10548 IM1      224      IM1      H5       HDR5A    0.530000E-01   1.00800           0   0.00000       0.00000    
     10549 IM1      224      IM1      C4       CD2R5B    1.73480       11.6110           0 -0.868000       1.30000    
     10550 IM1      224      IM1      DC4      DRUD     -1.61680      0.400000           0   0.00000       0.00000    
     10551 IM1      224      IM1      H6       HDR5B    0.730000E-01   1.00800           0   0.00000       0.00000    
     10552 IM1      224      IM1      N2       ND2R5B    1.59050       13.6070           0 -0.840000       1.00000    
     10553 IM1      224      IM1      DN2      DRUD     -1.59050      0.400000           0   0.00000       0.00000    
     10554 IM1      224      IM1      H7       DUMH      0.00000       1.00800           0   0.00000       0.00000    
     10555 IM1      224      IM1      LPN21    LPD     -0.474000       0.00000          -1   0.00000       0.00000    
     10556 IM1      225      IM1      C1       CD33G     1.64330       11.6110           0  -1.08100       1.00000    
     10557 IM1      225      IM1      DC1      DRUD     -1.80430      0.400000           0   0.00000       0.00000    
     10558 IM1      225      IM1      H1       HDA3A    0.940000E-01   1.00800           0   0.00000       0.00000    
     10559 IM1      225      IM1      H2       HDA3A    0.940000E-01   1.00800           0   0.00000       0.00000    
     10560 IM1      225      IM1      H3       HDA3A    0.940000E-01   1.00800           0   0.00000       0.00000    
     10561 IM1      225      IM1      N1       ND2R5A    1.92920       13.6070           0  -1.06300       1.30000    
     10562 IM1      225      IM1      DN1      DRUD     -1.78920      0.400000           0   0.00000       0.00000    
     10563 IM1      225      IM1      C2       CD2R5A    1.66810       11.6110           0  -1.37800       1.30000    
     10564 IM1      225      IM1      DC2      DRUD     -2.03710      0.400000           0   0.00000       0.00000    
     10565 IM1      225      IM1      H4       HDR5A    0.150000       1.00800           0   0.00000       0.00000    
     10566 IM1      225      IM1      C3       CD2R5A    2.22510       11.6110           0  -1.37800       1.30000    
     10567 IM1      225      IM1      DC3      DRUD     -2.03710      0.400000           0   0.00000       0.00000    
     10568 IM1      225      IM1      H5       HDR5A    0.530000E-01   1.00800           0   0.00000       0.00000    
     10569 IM1      225      IM1      C4       CD2R5B    1.73480       11.6110           0 -0.868000       1.30000    
     10570 IM1      225      IM1      DC4      DRUD     -1.61680      0.400000           0   0.00000       0.00000    
     10571 IM1      225      IM1      H6       HDR5B    0.730000E-01   1.00800           0   0.00000       0.00000    
     10572 IM1      225      IM1      N2       ND2R5B    1.59050       13.6070           0 -0.840000       1.00000    
     10573 IM1      225      IM1      DN2      DRUD     -1.59050      0.400000           0   0.00000       0.00000    
     10574 IM1      225      IM1      H7       DUMH      0.00000       1.00800           0   0.00000       0.00000    
     10575 IM1      225      IM1      LPN21    LPD     -0.474000       0.00000          -1   0.00000       0.00000    
     10576 IM1      226      IM1      C1       CD33G     1.64330       11.6110           0  -1.08100       1.00000    
     10577 IM1      226      IM1      DC1      DRUD     -1.80430      0.400000           0   0.00000       0.00000    
     10578 IM1      226      IM1      H1       HDA3A    0.940000E-01   1.00800           0   0.00000       0.00000    
     10579 IM1      226      IM1      H2       HDA3A    0.940000E-01   1.00800           0   0.00000       0.00000    
     10580 IM1      226      IM1      H3       HDA3A    0.940000E-01   1.00800           0   0.00000       0.00000    
     10581 IM1      226      IM1      N1       ND2R5A    1.92920       13.6070           0  -1.06300       1.30000    
     10582 IM1      226      IM1      DN1      DRUD     -1.78920      0.400000           0   0.00000       0.00000    
     10583 IM1      226      IM1      C2       CD2R5A    1.66810       11.6110           0  -1.37800       1.30000    
     10584 IM1      226      IM1      DC2      DRUD     -2.03710      0.400000           0   0.00000       0.00000    
     10585 IM1      226      IM1      H4       HDR5A    0.150000       1.00800           0   0.00000       0.00000    
     10586 IM1      226      IM1      C3       CD2R5A    2.22510       11.6110           0  -1.37800       1.30000    
     10587 IM1      226      IM1      DC3      DRUD     -2.03710      0.400000           0   0.00000       0.00000    
     10588 IM1      226      IM1      H5       HDR5A    0.530000E-01   1.00800           0   0.00000       0.00000    
     10589 IM1      226      IM1      C4       CD2R5B    1.73480       11.6110           0 -0.868000       1.30000    
     10590 IM1      226      IM1      DC4      DRUD     -1.61680      0.400000           0   0.00000       0.00000    
     10591 IM1      226      IM1      H6       HDR5B    0.730000E-01   1.00800           0   0.00000       0.00000    
     10592 IM1      226      IM1      N2       ND2R5B    1.59050       13.6070           0 -0.840000       1.00000    
     10593 IM1      226      IM1      DN2      DRUD     -1.59050      0.400000           0   0.00000       0.00000    
     10594 IM1      226      IM1      H7       DUMH      0.00000       1.00800           0   0.00000       0.00000    
     10595 IM1      226      IM1      LPN21    LPD     -0.474000       0.00000          -1   0.00000       0.00000    
     10596 IM1      227      IM1      C1       CD33G     1.64330       11.6110           0  -1.08100       1.00000    
     10597 IM1      227      IM1      DC1      DRUD     -1.80430      0.400000           0   0.00000       0.00000    
     10598 IM1      227      IM1      H1       HDA3A    0.940000E-01   1.00800           0   0.00000       0.00000    
     10599 IM1      227      IM1      H2       HDA3A    0.940000E-01   1.00800           0   0.00000       0.00000    
     10600 IM1      227      IM1      H3       HDA3A    0.940000E-01   1.00800           0   0.00000       0.00000    
     10601 IM1      227      IM1      N1       ND2R5A    1.92920       13.6070           0  -1.06300       1.30000    
     10602 IM1      227      IM1      DN1      DRUD     -1.78920      0.400000           0   0.00000       0.00000    
     10603 IM1      227      IM1      C2       CD2R5A    1.66810       11.6110           0  -1.37800       1.30000    
     10604 IM1      227      IM1      DC2      DRUD     -2.03710      0.400000           0   0.00000       0.00000    
     10605 IM1      227      IM1      H4       HDR5A    0.150000       1.00800           0   0.00000       0.00000    
     10606 IM1      227      IM1      C3       CD2R5A    2.22510       11.6110           0  -1.37800       1.30000    
     10607 IM1      227      IM1      DC3      DRUD     -2.03710      0.400000           0   0.00000       0.00000    
     10608 IM1      227      IM1      H5       HDR5A    0.530000E-01   1.00800           0   0.00000       0.00000    
     10609 IM1      227      IM1      C4       CD2R5B    1.73480       11.6110           0 -0.868000       1.30000    
     10610 IM1      227      IM1      DC4      DRUD     -1.61680      0.400000           0   0.00000       0.00000    
     10611 IM1      227      IM1      H6       HDR5B    0.730000E-01   1.00800           0   0.00000       0.00000    
     10612 IM1      227      IM1      N2       ND2R5B    1.59050       13.6070           0 -0.840000       1.00000    
     10613 IM1      227      IM1      DN2      DRUD     -1.59050      0.400000           0   0.00000       0.00000    
     10614 IM1      227      IM1      H7       DUMH      0.00000       1.00800           0   0.00000       0.00000    
     10615 IM1      227      IM1      LPN21    LPD     -0.474000       0.00000          -1   0.00000       0.00000    
     10616 IM1      228      IM1      C1       CD33G     1.64330       11.6110           0  -1.08100       1.00000    
     10617 IM1      228      IM1      DC1      DRUD     -1.80430      0.400000           0   0.00000       0.00000    
     10618 IM1      228      IM1      H1       HDA3A    0.940000E-01   1.00800           0   0.00000       0.00000    
     10619 IM1      228      IM1      H2       HDA3A    0.940000E-01   1.00800           0   0.00000       0.00000    
     10620 IM1      228      IM1      H3       HDA3A    0.940000E-01   1.00800           0   0.00000       0.00000    
     10621 IM1      228      IM1      N1       ND2R5A    1.92920       13.6070           0  -1.06300       1.30000    
     10622 IM1      228      IM1      DN1      DRUD     -1.78920      0.400000           0   0.00000       0.00000    
     10623 IM1      228      IM1      C2       CD2R5A    1.66810       11.6110           0  -1.37800       1.30000    
     10624 IM1      228      IM1      DC2      DRUD     -2.03710      0.400000           0   0.00000       0.00000    
     10625 IM1      228      IM1      H4       HDR5A    0.150000       1.00800           0   0.00000       0.00000    
     10626 IM1      228      IM1      C3       CD2R5A    2.22510       11.6110           0  -1.37800       1.30000    
     10627 IM1      228      IM1      DC3      DRUD     -2.03710      0.400000           0   0.00000       0.00000    
     10628 IM1      228      IM1      H5       HDR5A    0.530000E-01   1.00800           0   0.00000       0.00000    
     10629 IM1      228      IM1      C4       CD2R5B    1.73480       11.6110           0 -0.868000       1.30000    
     10630 IM1      228      IM1      DC4      DRUD     -1.61680      0.400000           0   0.00000       0.00000    
     10631 IM1      228      IM1      H6       HDR5B    0.730000E-01   1.00800           0   0.00000       0.00000    
     10632 IM1      228      IM1      N2       ND2R5B    1.59050       13.6070           0 -0.840000       1.00000    
     10633 IM1      228      IM1      DN2      DRUD     -1.59050      0.400000           0   0.00000       0.00000    
     10634 IM1      228      IM1      H7       DUMH      0.00000       1.00800           0   0.00000       0.00000    
     10635 IM1      228      IM1      LPN21    LPD     -0.474000       0.00000          -1   0.00000       0.00000    
     10636 IM1      229      IM1      C1       CD33G     1.64330       11.6110           0  -1.08100       1.00000    
     10637 IM1      229      IM1      DC1      DRUD     -1.80430      0.400000           0   0.00000       0.00000    
     10638 IM1      229      IM1      H1       HDA3A    0.940000E-01   1.00800           0   0.00000       0.00000    
     10639 IM1      229      IM1      H2       HDA3A    0.940000E-01   1.00800           0   0.00000       0.00000    
     10640 IM1      229      IM1      H3       HDA3A    0.940000E-01   1.00800           0   0.00000       0.00000    
     10641 IM1      229      IM1      N1       ND2R5A    1.92920       13.6070           0  -1.06300       1.30000    
     10642 IM1      229      IM1      DN1      DRUD     -1.78920      0.400000           0   0.00000       0.00000    
     10643 IM1      229      IM1      C2       CD2R5A    1.66810       11.6110           0  -1.37800       1.30000    
     10644 IM1      229      IM1      DC2      DRUD     -2.03710      0.400000           0   0.00000       0.00000    
     10645 IM1      229      IM1      H4       HDR5A    0.150000       1.00800           0   0.00000       0.00000    
     10646 IM1      229      IM1      C3       CD2R5A    2.22510       11.6110           0  -1.37800       1.30000    
     10647 IM1      229      IM1      DC3      DRUD     -2.03710      0.400000           0   0.00000       0.00000    
     10648 IM1      229      IM1      H5       HDR5A    0.530000E-01   1.00800           0   0.00000       0.00000    
     10649 IM1      229      IM1      C4       CD2R5B    1.73480       11.6110           0 -0.868000       1.30000    
     10650 IM1      229      IM1      DC4      DRUD     -1.61680      0.400000           0   0.00000       0.00000    
     10651 IM1      229      IM1      H6       HDR5B    0.730000E-01   1.00800           0   0.00000       0.00000    
     10652 IM1      229      IM1      N2       ND2R5B    1.59050       13.6070           0 -0.840000       1.00000    
     10653 IM1      229      IM1      DN2      DRUD     -1.59050      0.400000           0   0.00000       0.00000    
     10654 IM1      229      IM1      H7       DUMH      0.00000       1.00800           0   0.00000       0.00000    
     10655 IM1      229      IM1      LPN21    LPD     -0.474000       0.00000          -1   0.00000       0.00000    
     10656 IM1      230      IM1      C1       CD33G     1.64330       11.6110           0  -1.08100       1.00000    
     10657 IM1      230      IM1      DC1      DRUD     -1.80430      0.400000           0   0.00000       0.00000    
     10658 IM1      230      IM1      H1       HDA3A    0.940000E-01   1.00800           0   0.00000       0.00000    
     10659 IM1      230      IM1      H2       HDA3A    0.940000E-01   1.00800           0   0.00000       0.00000    
     10660 IM1      230      IM1      H3       HDA3A    0.940000E-01   1.00800           0   0.00000       0.00000    
     10661 IM1      230      IM1      N1       ND2R5A    1.92920       13.6070           0  -1.06300       1.30000    
     10662 IM1      230      IM1      DN1      DRUD     -1.78920      0.400000           0   0.00000       0.00000    
     10663 IM1      230      IM1      C2       CD2R5A    1.66810       11.6110           0  -1.37800       1.30000    
     10664 IM1      230      IM1      DC2      DRUD     -2.03710      0.400000           0   0.00000       0.00000    
     10665 IM1      230      IM1      H4       HDR5A    0.150000       1.00800           0   0.00000       0.00000    
     10666 IM1      230      IM1      C3       CD2R5A    2.22510       11.6110           0  -1.37800       1.30000    
     10667 IM1      230      IM1      DC3      DRUD     -2.03710      0.400000           0   0.00000       0.00000    
     10668 IM1      230      IM1      H5       HDR5A    0.530000E-01   1.00800           0   0.00000       0.00000    
     10669 IM1      230      IM1      C4       CD2R5B    1.73480       11.6110           0 -0.868000       1.30000    
     10670 IM1      230      IM1      DC4      DRUD     -1.61680      0.400000           0   0.00000       0.00000    
     10671 IM1      230      IM1      H6       HDR5B    0.730000E-01   1.00800           0   0.00000       0.00000    
     10672 IM1      230      IM1      N2       ND2R5B    1.59050       13.6070           0 -0.840000       1.00000    
     10673 IM1      230      IM1      DN2      DRUD     -1.59050      0.400000           0   0.00000       0.00000    
     10674 IM1      230      IM1      H7       DUMH      0.00000       1.00800           0   0.00000       0.00000    
     10675 IM1      230      IM1      LPN21    LPD     -0.474000       0.00000          -1   0.00000       0.00000    
     10676 IM1      231      IM1      C1       CD33G     1.64330       11.6110           0  -1.08100       1.00000    
     10677 IM1      231      IM1      DC1      DRUD     -1.80430      0.400000           0   0.00000       0.00000    
     10678 IM1      231      IM1      H1       HDA3A    0.940000E-01   1.00800           0   0.00000       0.00000    
     10679 IM1      231      IM1      H2       HDA3A    0.940000E-01   1.00800           0   0.00000       0.00000    
     10680 IM1      231      IM1      H3       HDA3A    0.940000E-01   1.00800           0   0.00000       0.00000    
     10681 IM1      231      IM1      N1       ND2R5A    1.92920       13.6070           0  -1.06300       1.30000    
     10682 IM1      231      IM1      DN1      DRUD     -1.78920      0.400000           0   0.00000       0.00000    
     10683 IM1      231      IM1      C2       CD2R5A    1.66810       11.6110           0  -1.37800       1.30000    
     10684 IM1      231      IM1      DC2      DRUD     -2.03710      0.400000           0   0.00000       0.00000    
     10685 IM1      231      IM1      H4       HDR5A    0.150000       1.00800           0   0.00000       0.00000    
     10686 IM1      231      IM1      C3       CD2R5A    2.22510       11.6110           0  -1.37800       1.30000    
     10687 IM1      231      IM1      DC3      DRUD     -2.03710      0.400000           0   0.00000       0.00000    
     10688 IM1      231      IM1      H5       HDR5A    0.530000E-01   1.00800           0   0.00000       0.00000    
     10689 IM1      231      IM1      C4       CD2R5B    1.73480       11.6110           0 -0.868000       1.30000    
     10690 IM1      231      IM1      DC4      DRUD     -1.61680      0.400000           0   0.00000       0.00000    
     10691 IM1      231      IM1      H6       HDR5B    0.730000E-01   1.00800           0   0.00000       0.00000    
     10692 IM1      231      IM1      N2       ND2R5B    1.59050       13.6070           0 -0.840000       1.00000    
     10693 IM1      231      IM1      DN2      DRUD     -1.59050      0.400000           0   0.00000       0.00000    
     10694 IM1      231      IM1      H7       DUMH      0.00000       1.00800           0   0.00000       0.00000    
     10695 IM1      231      IM1      LPN21    LPD     -0.474000       0.00000          -1   0.00000       0.00000    
     10696 IM1      232      IM1      C1       CD33G     1.64330       11.6110           0  -1.08100       1.00000    
     10697 IM1      232      IM1      DC1      DRUD     -1.80430      0.400000           0   0.00000       0.00000    
     10698 IM1      232      IM1      H1       HDA3A    0.940000E-01   1.00800           0   0.00000       0.00000    
     10699 IM1      232      IM1      H2       HDA3A    0.940000E-01   1.00800           0   0.00000       0.00000    
     10700 IM1      232      IM1      H3       HDA3A    0.940000E-01   1.00800           0   0.00000       0.00000    
     10701 IM1      232      IM1      N1       ND2R5A    1.92920       13.6070           0  -1.06300       1.30000    
     10702 IM1      232      IM1      DN1      DRUD     -1.78920      0.400000           0   0.00000       0.00000    
     10703 IM1      232      IM1      C2       CD2R5A    1.66810       11.6110           0  -1.37800       1.30000    
     10704 IM1      232      IM1      DC2      DRUD     -2.03710      0.400000           0   0.00000       0.00000    
     10705 IM1      232      IM1      H4       HDR5A    0.150000       1.00800           0   0.00000       0.00000    
     10706 IM1      232      IM1      C3       CD2R5A    2.22510       11.6110           0  -1.37800       1.30000    
     10707 IM1      232      IM1      DC3      DRUD     -2.03710      0.400000           0   0.00000       0.00000    
     10708 IM1      232      IM1      H5       HDR5A    0.530000E-01   1.00800           0   0.00000       0.00000    
     10709 IM1      232      IM1      C4       CD2R5B    1.73480       11.6110           0 -0.868000       1.30000    
     10710 IM1      232      IM1      DC4      DRUD     -1.61680      0.400000           0   0.00000       0.00000    
     10711 IM1      232      IM1      H6       HDR5B    0.730000E-01   1.00800           0   0.00000       0.00000    
     10712 IM1      232      IM1      N2       ND2R5B    1.59050       13.6070           0 -0.840000       1.00000    
     10713 IM1      232      IM1      DN2      DRUD     -1.59050      0.400000           0   0.00000       0.00000    
     10714 IM1      232      IM1      H7       DUMH      0.00000       1.00800           0   0.00000       0.00000    
     10715 IM1      232      IM1      LPN21    LPD     -0.474000       0.00000          -1   0.00000       0.00000    
     10716 IM1      233      IM1      C1       CD33G     1.64330       11.6110           0  -1.08100       1.00000    
     10717 IM1      233      IM1      DC1      DRUD     -1.80430      0.400000           0   0.00000       0.00000    
     10718 IM1      233      IM1      H1       HDA3A    0.940000E-01   1.00800           0   0.00000       0.00000    
     10719 IM1      233      IM1      H2       HDA3A    0.940000E-01   1.00800           0   0.00000       0.00000    
     10720 IM1      233      IM1      H3       HDA3A    0.940000E-01   1.00800           0   0.00000       0.00000    
     10721 IM1      233      IM1      N1       ND2R5A    1.92920       13.6070           0  -1.06300       1.30000    
     10722 IM1      233      IM1      DN1      DRUD     -1.78920      0.400000           0   0.00000       0.00000    
     10723 IM1      233      IM1      C2       CD2R5A    1.66810       11.6110           0  -1.37800       1.30000    
     10724 IM1      233      IM1      DC2      DRUD     -2.03710      0.400000           0   0.00000       0.00000    
     10725 IM1      233      IM1      H4       HDR5A    0.150000       1.00800           0   0.00000       0.00000    
     10726 IM1      233      IM1      C3       CD2R5A    2.22510       11.6110           0  -1.37800       1.30000    
     10727 IM1      233      IM1      DC3      DRUD     -2.03710      0.400000           0   0.00000       0.00000    
     10728 IM1      233      IM1      H5       HDR5A    0.530000E-01   1.00800           0   0.00000       0.00000    
     10729 IM1      233      IM1      C4       CD2R5B    1.73480       11.6110           0 -0.868000       1.30000    
     10730 IM1      233      IM1      DC4      DRUD     -1.61680      0.400000           0   0.00000       0.00000    
     10731 IM1      233      IM1      H6       HDR5B    0.730000E-01   1.00800           0   0.00000       0.00000    
     10732 IM1      233      IM1      N2       ND2R5B    1.59050       13.6070           0 -0.840000       1.00000    
     10733 IM1      233      IM1      DN2      DRUD     -1.59050      0.400000           0   0.00000       0.00000    
     10734 IM1      233      IM1      H7       DUMH      0.00000       1.00800           0   0.00000       0.00000    
     10735 IM1      233      IM1      LPN21    LPD     -0.474000       0.00000          -1   0.00000       0.00000    
     10736 IM1      234      IM1      C1       CD33G     1.64330       11.6110           0  -1.08100       1.00000    
     10737 IM1      234      IM1      DC1      DRUD     -1.80430      0.400000           0   0.00000       0.00000    
     10738 IM1      234      IM1      H1       HDA3A    0.940000E-01   1.00800           0   0.00000       0.00000    
     10739 IM1      234      IM1      H2       HDA3A    0.940000E-01   1.00800           0   0.00000       0.00000    
     10740 IM1      234      IM1      H3       HDA3A    0.940000E-01   1.00800           0   0.00000       0.00000    
     10741 IM1      234      IM1      N1       ND2R5A    1.92920       13.6070           0  -1.06300       1.30000    
     10742 IM1      234      IM1      DN1      DRUD     -1.78920      0.400000           0   0.00000       0.00000    
     10743 IM1      234      IM1      C2       CD2R5A    1.66810       11.6110           0  -1.37800       1.30000    
     10744 IM1      234      IM1      DC2      DRUD     -2.03710      0.400000           0   0.00000       0.00000    
     10745 IM1      234      IM1      H4       HDR5A    0.150000       1.00800           0   0.00000       0.00000    
     10746 IM1      234      IM1      C3       CD2R5A    2.22510       11.6110           0  -1.37800       1.30000    
     10747 IM1      234      IM1      DC3      DRUD     -2.03710      0.400000           0   0.00000       0.00000    
     10748 IM1      234      IM1      H5       HDR5A    0.530000E-01   1.00800           0   0.00000       0.00000    
     10749 IM1      234      IM1      C4       CD2R5B    1.73480       11.6110           0 -0.868000       1.30000    
     10750 IM1      234      IM1      DC4      DRUD     -1.61680      0.400000           0   0.00000       0.00000    
     10751 IM1      234      IM1      H6       HDR5B    0.730000E-01   1.00800           0   0.00000       0.00000    
     10752 IM1      234      IM1      N2       ND2R5B    1.59050       13.6070           0 -0.840000       1.00000    
     10753 IM1      234      IM1      DN2      DRUD     -1.59050      0.400000           0   0.00000       0.00000    
     10754 IM1      234      IM1      H7       DUMH      0.00000       1.00800           0   0.00000       0.00000    
     10755 IM1      234      IM1      LPN21    LPD     -0.474000       0.00000          -1   0.00000       0.00000    
     10756 IM1      235      IM1      C1       CD33G     1.64330       11.6110           0  -1.08100       1.00000    
     10757 IM1      235      IM1      DC1      DRUD     -1.80430      0.400000           0   0.00000       0.00000    
     10758 IM1      235      IM1      H1       HDA3A    0.940000E-01   1.00800           0   0.00000       0.00000    
     10759 IM1      235      IM1      H2       HDA3A    0.940000E-01   1.00800           0   0.00000       0.00000    
     10760 IM1      235      IM1      H3       HDA3A    0.940000E-01   1.00800           0   0.00000       0.00000    
     10761 IM1      235      IM1      N1       ND2R5A    1.92920       13.6070           0  -1.06300       1.30000    
     10762 IM1      235      IM1      DN1      DRUD     -1.78920      0.400000           0   0.00000       0.00000    
     10763 IM1      235      IM1      C2       CD2R5A    1.66810       11.6110           0  -1.37800       1.30000    
     10764 IM1      235      IM1      DC2      DRUD     -2.03710      0.400000           0   0.00000       0.00000    
     10765 IM1      235      IM1      H4       HDR5A    0.150000       1.00800           0   0.00000       0.00000    
     10766 IM1      235      IM1      C3       CD2R5A    2.22510       11.6110           0  -1.37800       1.30000    
     10767 IM1      235      IM1      DC3      DRUD     -2.03710      0.400000           0   0.00000       0.00000    
     10768 IM1      235      IM1      H5       HDR5A    0.530000E-01   1.00800           0   0.00000       0.00000    
     10769 IM1      235      IM1      C4       CD2R5B    1.73480       11.6110           0 -0.868000       1.30000    
     10770 IM1      235      IM1      DC4      DRUD     -1.61680      0.400000           0   0.00000       0.00000    
     10771 IM1      235      IM1      H6       HDR5B    0.730000E-01   1.00800           0   0.00000       0.00000    
     10772 IM1      235      IM1      N2       ND2R5B    1.59050       13.6070           0 -0.840000       1.00000    
     10773 IM1      235      IM1      DN2      DRUD     -1.59050      0.400000           0   0.00000       0.00000    
     10774 IM1      235      IM1      H7       DUMH      0.00000       1.00800           0   0.00000       0.00000    
     10775 IM1      235      IM1      LPN21    LPD     -0.474000       0.00000          -1   0.00000       0.00000    
     10776 IM1      236      IM1      C1       CD33G     1.64330       11.6110           0  -1.08100       1.00000    
     10777 IM1      236      IM1      DC1      DRUD     -1.80430      0.400000           0   0.00000       0.00000    
     10778 IM1      236      IM1      H1       HDA3A    0.940000E-01   1.00800           0   0.00000       0.00000    
     10779 IM1      236      IM1      H2       HDA3A    0.940000E-01   1.00800           0   0.00000       0.00000    
     10780 IM1      236      IM1      H3       HDA3A    0.940000E-01   1.00800           0   0.00000       0.00000    
     10781 IM1      236      IM1      N1       ND2R5A    1.92920       13.6070           0  -1.06300       1.30000    
     10782 IM1      236      IM1      DN1      DRUD     -1.78920      0.400000           0   0.00000       0.00000    
     10783 IM1      236      IM1      C2       CD2R5A    1.66810       11.6110           0  -1.37800       1.30000    
     10784 IM1      236      IM1      DC2      DRUD     -2.03710      0.400000           0   0.00000       0.00000    
     10785 IM1      236      IM1      H4       HDR5A    0.150000       1.00800           0   0.00000       0.00000    
     10786 IM1      236      IM1      C3       CD2R5A    2.22510       11.6110           0  -1.37800       1.30000    
     10787 IM1      236      IM1      DC3      DRUD     -2.03710      0.400000           0   0.00000       0.00000    
     10788 IM1      236      IM1      H5       HDR5A    0.530000E-01   1.00800           0   0.00000       0.00000    
     10789 IM1      236      IM1      C4       CD2R5B    1.73480       11.6110           0 -0.868000       1.30000    
     10790 IM1      236      IM1      DC4      DRUD     -1.61680      0.400000           0   0.00000       0.00000    
     10791 IM1      236      IM1      H6       HDR5B    0.730000E-01   1.00800           0   0.00000       0.00000    
     10792 IM1      236      IM1      N2       ND2R5B    1.59050       13.6070           0 -0.840000       1.00000    
     10793 IM1      236      IM1      DN2      DRUD     -1.59050      0.400000           0   0.00000       0.00000    
     10794 IM1      236      IM1      H7       DUMH      0.00000       1.00800           0   0.00000       0.00000    
     10795 IM1      236      IM1      LPN21    LPD     -0.474000       0.00000          -1   0.00000       0.00000    
     10796 IM1      237      IM1      C1       CD33G     1.64330       11.6110           0  -1.08100       1.00000    
     10797 IM1      237      IM1      DC1      DRUD     -1.80430      0.400000           0   0.00000       0.00000    
     10798 IM1      237      IM1      H1       HDA3A    0.940000E-01   1.00800           0   0.00000       0.00000    
     10799 IM1      237      IM1      H2       HDA3A    0.940000E-01   1.00800           0   0.00000       0.00000    
     10800 IM1      237      IM1      H3       HDA3A    0.940000E-01   1.00800           0   0.00000       0.00000    
     10801 IM1      237      IM1      N1       ND2R5A    1.92920       13.6070           0  -1.06300       1.30000    
     10802 IM1      237      IM1      DN1      DRUD     -1.78920      0.400000           0   0.00000       0.00000    
     10803 IM1      237      IM1      C2       CD2R5A    1.66810       11.6110           0  -1.37800       1.30000    
     10804 IM1      237      IM1      DC2      DRUD     -2.03710      0.400000           0   0.00000       0.00000    
     10805 IM1      237      IM1      H4       HDR5A    0.150000       1.00800           0   0.00000       0.00000    
     10806 IM1      237      IM1      C3       CD2R5A    2.22510       11.6110           0  -1.37800       1.30000    
     10807 IM1      237      IM1      DC3      DRUD     -2.03710      0.400000           0   0.00000       0.00000    
     10808 IM1      237      IM1      H5       HDR5A    0.530000E-01   1.00800           0   0.00000       0.00000    
     10809 IM1      237      IM1      C4       CD2R5B    1.73480       11.6110           0 -0.868000       1.30000    
     10810 IM1      237      IM1      DC4      DRUD     -1.61680      0.400000           0   0.00000       0.00000    
     10811 IM1      237      IM1      H6       HDR5B    0.730000E-01   1.00800           0   0.00000       0.00000    
     10812 IM1      237      IM1      N2       ND2R5B    1.59050       13.6070           0 -0.840000       1.00000    
     10813 IM1      237      IM1      DN2      DRUD     -1.59050      0.400000           0   0.00000       0.00000    
     10814 IM1      237      IM1      H7       DUMH      0.00000       1.00800           0   0.00000       0.00000    
     10815 IM1      237      IM1      LPN21    LPD     -0.474000       0.00000          -1   0.00000       0.00000    
     10816 IM1      238      IM1      C1       CD33G     1.64330       11.6110           0  -1.08100       1.00000    
     10817 IM1      238      IM1      DC1      DRUD     -1.80430      0.400000           0   0.00000       0.00000    
     10818 IM1      238      IM1      H1       HDA3A    0.940000E-01   1.00800           0   0.00000       0.00000    
     10819 IM1      238      IM1      H2       HDA3A    0.940000E-01   1.00800           0   0.00000       0.00000    
     10820 IM1      238      IM1      H3       HDA3A    0.940000E-01   1.00800           0   0.00000       0.00000    
     10821 IM1      238      IM1      N1       ND2R5A    1.92920       13.6070           0  -1.06300       1.30000    
     10822 IM1      238      IM1      DN1      DRUD     -1.78920      0.400000           0   0.00000       0.00000    
     10823 IM1      238      IM1      C2       CD2R5A    1.66810       11.6110           0  -1.37800       1.30000    
     10824 IM1      238      IM1      DC2      DRUD     -2.03710      0.400000           0   0.00000       0.00000    
     10825 IM1      238      IM1      H4       HDR5A    0.150000       1.00800           0   0.00000       0.00000    
     10826 IM1      238      IM1      C3       CD2R5A    2.22510       11.6110           0  -1.37800       1.30000    
     10827 IM1      238      IM1      DC3      DRUD     -2.03710      0.400000           0   0.00000       0.00000    
     10828 IM1      238      IM1      H5       HDR5A    0.530000E-01   1.00800           0   0.00000       0.00000    
     10829 IM1      238      IM1      C4       CD2R5B    1.73480       11.6110           0 -0.868000       1.30000    
     10830 IM1      238      IM1      DC4      DRUD     -1.61680      0.400000           0   0.00000       0.00000    
     10831 IM1      238      IM1      H6       HDR5B    0.730000E-01   1.00800           0   0.00000       0.00000    
     10832 IM1      238      IM1      N2       ND2R5B    1.59050       13.6070           0 -0.840000       1.00000    
     10833 IM1      238      IM1      DN2      DRUD     -1.59050      0.400000           0   0.00000       0.00000    
     10834 IM1      238      IM1      H7       DUMH      0.00000       1.00800           0   0.00000       0.00000    
     10835 IM1      238      IM1      LPN21    LPD     -0.474000       0.00000          -1   0.00000       0.00000    
     10836 IM1      239      IM1      C1       CD33G     1.64330       11.6110           0  -1.08100       1.00000    
     10837 IM1      239      IM1      DC1      DRUD     -1.80430      0.400000           0   0.00000       0.00000    
     10838 IM1      239      IM1      H1       HDA3A    0.940000E-01   1.00800           0   0.00000       0.00000    
     10839 IM1      239      IM1      H2       HDA3A    0.940000E-01   1.00800           0   0.00000       0.00000    
     10840 IM1      239      IM1      H3       HDA3A    0.940000E-01   1.00800           0   0.00000       0.00000    
     10841 IM1      239      IM1      N1       ND2R5A    1.92920       13.6070           0  -1.06300       1.30000    
     10842 IM1      239      IM1      DN1      DRUD     -1.78920      0.400000           0   0.00000       0.00000    
     10843 IM1      239      IM1      C2       CD2R5A    1.66810       11.6110           0  -1.37800       1.30000    
     10844 IM1      239      IM1      DC2      DRUD     -2.03710      0.400000           0   0.00000       0.00000    
     10845 IM1      239      IM1      H4       HDR5A    0.150000       1.00800           0   0.00000       0.00000    
     10846 IM1      239      IM1      C3       CD2R5A    2.22510       11.6110           0  -1.37800       1.30000    
     10847 IM1      239      IM1      DC3      DRUD     -2.03710      0.400000           0   0.00000       0.00000    
     10848 IM1      239      IM1      H5       HDR5A    0.530000E-01   1.00800           0   0.00000       0.00000    
     10849 IM1      239      IM1      C4       CD2R5B    1.73480       11.6110           0 -0.868000       1.30000    
     10850 IM1      239      IM1      DC4      DRUD     -1.61680      0.400000           0   0.00000       0.00000    
     10851 IM1      239      IM1      H6       HDR5B    0.730000E-01   1.00800           0   0.00000       0.00000    
     10852 IM1      239      IM1      N2       ND2R5B    1.59050       13.6070           0 -0.840000       1.00000    
     10853 IM1      239      IM1      DN2      DRUD     -1.59050      0.400000           0   0.00000       0.00000    
     10854 IM1      239      IM1      H7       DUMH      0.00000       1.00800           0   0.00000       0.00000    
     10855 IM1      239      IM1      LPN21    LPD     -0.474000       0.00000          -1   0.00000       0.00000    
     10856 IM1      240      IM1      C1       CD33G     1.64330       11.6110           0  -1.08100       1.00000    
     10857 IM1      240      IM1      DC1      DRUD     -1.80430      0.400000           0   0.00000       0.00000    
     10858 IM1      240      IM1      H1       HDA3A    0.940000E-01   1.00800           0   0.00000       0.00000    
     10859 IM1      240      IM1      H2       HDA3A    0.940000E-01   1.00800           0   0.00000       0.00000    
     10860 IM1      240      IM1      H3       HDA3A    0.940000E-01   1.00800           0   0.00000       0.00000    
     10861 IM1      240      IM1      N1       ND2R5A    1.92920       13.6070           0  -1.06300       1.30000    
     10862 IM1      240      IM1      DN1      DRUD     -1.78920      0.400000           0   0.00000       0.00000    
     10863 IM1      240      IM1      C2       CD2R5A    1.66810       11.6110           0  -1.37800       1.30000    
     10864 IM1      240      IM1      DC2      DRUD     -2.03710      0.400000           0   0.00000       0.00000    
     10865 IM1      240      IM1      H4       HDR5A    0.150000       1.00800           0   0.00000       0.00000    
     10866 IM1      240      IM1      C3       CD2R5A    2.22510       11.6110           0  -1.37800       1.30000    
     10867 IM1      240      IM1      DC3      DRUD     -2.03710      0.400000           0   0.00000       0.00000    
     10868 IM1      240      IM1      H5       HDR5A    0.530000E-01   1.00800           0   0.00000       0.00000    
     10869 IM1      240      IM1      C4       CD2R5B    1.73480       11.6110           0 -0.868000       1.30000    
     10870 IM1      240      IM1      DC4      DRUD     -1.61680      0.400000           0   0.00000       0.00000    
     10871 IM1      240      IM1      H6       HDR5B    0.730000E-01   1.00800           0   0.00000       0.00000    
     10872 IM1      240      IM1      N2       ND2R5B    1.59050       13.6070           0 -0.840000       1.00000    
     10873 IM1      240      IM1      DN2      DRUD     -1.59050      0.400000           0   0.00000       0.00000    
     10874 IM1      240      IM1      H7       DUMH      0.00000       1.00800           0   0.00000       0.00000    
     10875 IM1      240      IM1      LPN21    LPD     -0.474000       0.00000          -1   0.00000       0.00000    
     10876 IM1      241      IM1      C1       CD33G     1.64330       11.6110           0  -1.08100       1.00000    
     10877 IM1      241      IM1      DC1      DRUD     -1.80430      0.400000           0   0.00000       0.00000    
     10878 IM1      241      IM1      H1       HDA3A    0.940000E-01   1.00800           0   0.00000       0.00000    
     10879 IM1      241      IM1      H2       HDA3A    0.940000E-01   1.00800           0   0.00000       0.00000    
     10880 IM1      241      IM1      H3       HDA3A    0.940000E-01   1.00800           0   0.00000       0.00000    
     10881 IM1      241      IM1      N1       ND2R5A    1.92920       13.6070           0  -1.06300       1.30000    
     10882 IM1      241      IM1      DN1      DRUD     -1.78920      0.400000           0   0.00000       0.00000    
     10883 IM1      241      IM1      C2       CD2R5A    1.66810       11.6110           0  -1.37800       1.30000    
     10884 IM1      241      IM1      DC2      DRUD     -2.03710      0.400000           0   0.00000       0.00000    
     10885 IM1      241      IM1      H4       HDR5A    0.150000       1.00800           0   0.00000       0.00000    
     10886 IM1      241      IM1      C3       CD2R5A    2.22510       11.6110           0  -1.37800       1.30000    
     10887 IM1      241      IM1      DC3      DRUD     -2.03710      0.400000           0   0.00000       0.00000    
     10888 IM1      241      IM1      H5       HDR5A    0.530000E-01   1.00800           0   0.00000       0.00000    
     10889 IM1      241      IM1      C4       CD2R5B    1.73480       11.6110           0 -0.868000       1.30000    
     10890 IM1      241      IM1      DC4      DRUD     -1.61680      0.400000           0   0.00000       0.00000    
     10891 IM1      241      IM1      H6       HDR5B    0.730000E-01   1.00800           0   0.00000       0.00000    
     10892 IM1      241      IM1      N2       ND2R5B    1.59050       13.6070           0 -0.840000       1.00000    
     10893 IM1      241      IM1      DN2      DRUD     -1.59050      0.400000           0   0.00000       0.00000    
     10894 IM1      241      IM1      H7       DUMH      0.00000       1.00800           0   0.00000       0.00000    
     10895 IM1      241      IM1      LPN21    LPD     -0.474000       0.00000          -1   0.00000       0.00000    
     10896 IM1      242      IM1      C1       CD33G     1.64330       11.6110           0  -1.08100       1.00000    
     10897 IM1      242      IM1      DC1      DRUD     -1.80430      0.400000           0   0.00000       0.00000    
     10898 IM1      242      IM1      H1       HDA3A    0.940000E-01   1.00800           0   0.00000       0.00000    
     10899 IM1      242      IM1      H2       HDA3A    0.940000E-01   1.00800           0   0.00000       0.00000    
     10900 IM1      242      IM1      H3       HDA3A    0.940000E-01   1.00800           0   0.00000       0.00000    
     10901 IM1      242      IM1      N1       ND2R5A    1.92920       13.6070           0  -1.06300       1.30000    
     10902 IM1      242      IM1      DN1      DRUD     -1.78920      0.400000           0   0.00000       0.00000    
     10903 IM1      242      IM1      C2       CD2R5A    1.66810       11.6110           0  -1.37800       1.30000    
     10904 IM1      242      IM1      DC2      DRUD     -2.03710      0.400000           0   0.00000       0.00000    
     10905 IM1      242      IM1      H4       HDR5A    0.150000       1.00800           0   0.00000       0.00000    
     10906 IM1      242      IM1      C3       CD2R5A    2.22510       11.6110           0  -1.37800       1.30000    
     10907 IM1      242      IM1      DC3      DRUD     -2.03710      0.400000           0   0.00000       0.00000    
     10908 IM1      242      IM1      H5       HDR5A    0.530000E-01   1.00800           0   0.00000       0.00000    
     10909 IM1      242      IM1      C4       CD2R5B    1.73480       11.6110           0 -0.868000       1.30000    
     10910 IM1      242      IM1      DC4      DRUD     -1.61680      0.400000           0   0.00000       0.00000    
     10911 IM1      242      IM1      H6       HDR5B    0.730000E-01   1.00800           0   0.00000       0.00000    
     10912 IM1      242      IM1      N2       ND2R5B    1.59050       13.6070           0 -0.840000       1.00000    
     10913 IM1      242      IM1      DN2      DRUD     -1.59050      0.400000           0   0.00000       0.00000    
     10914 IM1      242      IM1      H7       DUMH      0.00000       1.00800           0   0.00000       0.00000    
     10915 IM1      242      IM1      LPN21    LPD     -0.474000       0.00000          -1   0.00000       0.00000    
     10916 IM1      243      IM1      C1       CD33G     1.64330       11.6110           0  -1.08100       1.00000    
     10917 IM1      243      IM1      DC1      DRUD     -1.80430      0.400000           0   0.00000       0.00000    
     10918 IM1      243      IM1      H1       HDA3A    0.940000E-01   1.00800           0   0.00000       0.00000    
     10919 IM1      243      IM1      H2       HDA3A    0.940000E-01   1.00800           0   0.00000       0.00000    
     10920 IM1      243      IM1      H3       HDA3A    0.940000E-01   1.00800           0   0.00000       0.00000    
     10921 IM1      243      IM1      N1       ND2R5A    1.92920       13.6070           0  -1.06300       1.30000    
     10922 IM1      243      IM1      DN1      DRUD     -1.78920      0.400000           0   0.00000       0.00000    
     10923 IM1      243      IM1      C2       CD2R5A    1.66810       11.6110           0  -1.37800       1.30000    
     10924 IM1      243      IM1      DC2      DRUD     -2.03710      0.400000           0   0.00000       0.00000    
     10925 IM1      243      IM1      H4       HDR5A    0.150000       1.00800           0   0.00000       0.00000    
     10926 IM1      243      IM1      C3       CD2R5A    2.22510       11.6110           0  -1.37800       1.30000    
     10927 IM1      243      IM1      DC3      DRUD     -2.03710      0.400000           0   0.00000       0.00000    
     10928 IM1      243      IM1      H5       HDR5A    0.530000E-01   1.00800           0   0.00000       0.00000    
     10929 IM1      243      IM1      C4       CD2R5B    1.73480       11.6110           0 -0.868000       1.30000    
     10930 IM1      243      IM1      DC4      DRUD     -1.61680      0.400000           0   0.00000       0.00000    
     10931 IM1      243      IM1      H6       HDR5B    0.730000E-01   1.00800           0   0.00000       0.00000    
     10932 IM1      243      IM1      N2       ND2R5B    1.59050       13.6070           0 -0.840000       1.00000    
     10933 IM1      243      IM1      DN2      DRUD     -1.59050      0.400000           0   0.00000       0.00000    
     10934 IM1      243      IM1      H7       DUMH      0.00000       1.00800           0   0.00000       0.00000    
     10935 IM1      243      IM1      LPN21    LPD     -0.474000       0.00000          -1   0.00000       0.00000    
     10936 IM1      244      IM1      C1       CD33G     1.64330       11.6110           0  -1.08100       1.00000    
     10937 IM1      244      IM1      DC1      DRUD     -1.80430      0.400000           0   0.00000       0.00000    
     10938 IM1      244      IM1      H1       HDA3A    0.940000E-01   1.00800           0   0.00000       0.00000    
     10939 IM1      244      IM1      H2       HDA3A    0.940000E-01   1.00800           0   0.00000       0.00000    
     10940 IM1      244      IM1      H3       HDA3A    0.940000E-01   1.00800           0   0.00000       0.00000    
     10941 IM1      244      IM1      N1       ND2R5A    1.92920       13.6070           0  -1.06300       1.30000    
     10942 IM1      244      IM1      DN1      DRUD     -1.78920      0.400000           0   0.00000       0.00000    
     10943 IM1      244      IM1      C2       CD2R5A    1.66810       11.6110           0  -1.37800       1.30000    
     10944 IM1      244      IM1      DC2      DRUD     -2.03710      0.400000           0   0.00000       0.00000    
     10945 IM1      244      IM1      H4       HDR5A    0.150000       1.00800           0   0.00000       0.00000    
     10946 IM1      244      IM1      C3       CD2R5A    2.22510       11.6110           0  -1.37800       1.30000    
     10947 IM1      244      IM1      DC3      DRUD     -2.03710      0.400000           0   0.00000       0.00000    
     10948 IM1      244      IM1      H5       HDR5A    0.530000E-01   1.00800           0   0.00000       0.00000    
     10949 IM1      244      IM1      C4       CD2R5B    1.73480       11.6110           0 -0.868000       1.30000    
     10950 IM1      244      IM1      DC4      DRUD     -1.61680      0.400000           0   0.00000       0.00000    
     10951 IM1      244      IM1      H6       HDR5B    0.730000E-01   1.00800           0   0.00000       0.00000    
     10952 IM1      244      IM1      N2       ND2R5B    1.59050       13.6070           0 -0.840000       1.00000    
     10953 IM1      244      IM1      DN2      DRUD     -1.59050      0.400000           0   0.00000       0.00000    
     10954 IM1      244      IM1      H7       DUMH      0.00000       1.00800           0   0.00000       0.00000    
     10955 IM1      244      IM1      LPN21    LPD     -0.474000       0.00000          -1   0.00000       0.00000    
     10956 IM1      245      IM1      C1       CD33G     1.64330       11.6110           0  -1.08100       1.00000    
     10957 IM1      245      IM1      DC1      DRUD     -1.80430      0.400000           0   0.00000       0.00000    
     10958 IM1      245      IM1      H1       HDA3A    0.940000E-01   1.00800           0   0.00000       0.00000    
     10959 IM1      245      IM1      H2       HDA3A    0.940000E-01   1.00800           0   0.00000       0.00000    
     10960 IM1      245      IM1      H3       HDA3A    0.940000E-01   1.00800           0   0.00000       0.00000    
     10961 IM1      245      IM1      N1       ND2R5A    1.92920       13.6070           0  -1.06300       1.30000    
     10962 IM1      245      IM1      DN1      DRUD     -1.78920      0.400000           0   0.00000       0.00000    
     10963 IM1      245      IM1      C2       CD2R5A    1.66810       11.6110           0  -1.37800       1.30000    
     10964 IM1      245      IM1      DC2      DRUD     -2.03710      0.400000           0   0.00000       0.00000    
     10965 IM1      245      IM1      H4       HDR5A    0.150000       1.00800           0   0.00000       0.00000    
     10966 IM1      245      IM1      C3       CD2R5A    2.22510       11.6110           0  -1.37800       1.30000    
     10967 IM1      245      IM1      DC3      DRUD     -2.03710      0.400000           0   0.00000       0.00000    
     10968 IM1      245      IM1      H5       HDR5A    0.530000E-01   1.00800           0   0.00000       0.00000    
     10969 IM1      245      IM1      C4       CD2R5B    1.73480       11.6110           0 -0.868000       1.30000    
     10970 IM1      245      IM1      DC4      DRUD     -1.61680      0.400000           0   0.00000       0.00000    
     10971 IM1      245      IM1      H6       HDR5B    0.730000E-01   1.00800           0   0.00000       0.00000    
     10972 IM1      245      IM1      N2       ND2R5B    1.59050       13.6070           0 -0.840000       1.00000    
     10973 IM1      245      IM1      DN2      DRUD     -1.59050      0.400000           0   0.00000       0.00000    
     10974 IM1      245      IM1      H7       DUMH      0.00000       1.00800           0   0.00000       0.00000    
     10975 IM1      245      IM1      LPN21    LPD     -0.474000       0.00000          -1   0.00000       0.00000    
     10976 IM1      246      IM1      C1       CD33G     1.64330       11.6110           0  -1.08100       1.00000    
     10977 IM1      246      IM1      DC1      DRUD     -1.80430      0.400000           0   0.00000       0.00000    
     10978 IM1      246      IM1      H1       HDA3A    0.940000E-01   1.00800           0   0.00000       0.00000    
     10979 IM1      246      IM1      H2       HDA3A    0.940000E-01   1.00800           0   0.00000       0.00000    
     10980 IM1      246      IM1      H3       HDA3A    0.940000E-01   1.00800           0   0.00000       0.00000    
     10981 IM1      246      IM1      N1       ND2R5A    1.92920       13.6070           0  -1.06300       1.30000    
     10982 IM1      246      IM1      DN1      DRUD     -1.78920      0.400000           0   0.00000       0.00000    
     10983 IM1      246      IM1      C2       CD2R5A    1.66810       11.6110           0  -1.37800       1.30000    
     10984 IM1      246      IM1      DC2      DRUD     -2.03710      0.400000           0   0.00000       0.00000    
     10985 IM1      246      IM1      H4       HDR5A    0.150000       1.00800           0   0.00000       0.00000    
     10986 IM1      246      IM1      C3       CD2R5A    2.22510       11.6110           0  -1.37800       1.30000    
     10987 IM1      246      IM1      DC3      DRUD     -2.03710      0.400000           0   0.00000       0.00000    
     10988 IM1      246      IM1      H5       HDR5A    0.530000E-01   1.00800           0   0.00000       0.00000    
     10989 IM1      246      IM1      C4       CD2R5B    1.73480       11.6110           0 -0.868000       1.30000    
     10990 IM1      246      IM1      DC4      DRUD     -1.61680      0.400000           0   0.00000       0.00000    
     10991 IM1      246      IM1      H6       HDR5B    0.730000E-01   1.00800           0   0.00000       0.00000    
     10992 IM1      246      IM1      N2       ND2R5B    1.59050       13.6070           0 -0.840000       1.00000    
     10993 IM1      246      IM1      DN2      DRUD     -1.59050      0.400000           0   0.00000       0.00000    
     10994 IM1      246      IM1      H7       DUMH      0.00000       1.00800           0   0.00000       0.00000    
     10995 IM1      246      IM1      LPN21    LPD     -0.474000       0.00000          -1   0.00000       0.00000    
     10996 IM1      247      IM1      C1       CD33G     1.64330       11.6110           0  -1.08100       1.00000    
     10997 IM1      247      IM1      DC1      DRUD     -1.80430      0.400000           0   0.00000       0.00000    
     10998 IM1      247      IM1      H1       HDA3A    0.940000E-01   1.00800           0   0.00000       0.00000    
     10999 IM1      247      IM1      H2       HDA3A    0.940000E-01   1.00800           0   0.00000       0.00000    
     11000 IM1      247      IM1      H3       HDA3A    0.940000E-01   1.00800           0   0.00000       0.00000    
     11001 IM1      247      IM1      N1       ND2R5A    1.92920       13.6070           0  -1.06300       1.30000    
     11002 IM1      247      IM1      DN1      DRUD     -1.78920      0.400000           0   0.00000       0.00000    
     11003 IM1      247      IM1      C2       CD2R5A    1.66810       11.6110           0  -1.37800       1.30000    
     11004 IM1      247      IM1      DC2      DRUD     -2.03710      0.400000           0   0.00000       0.00000    
     11005 IM1      247      IM1      H4       HDR5A    0.150000       1.00800           0   0.00000       0.00000    
     11006 IM1      247      IM1      C3       CD2R5A    2.22510       11.6110           0  -1.37800       1.30000    
     11007 IM1      247      IM1      DC3      DRUD     -2.03710      0.400000           0   0.00000       0.00000    
     11008 IM1      247      IM1      H5       HDR5A    0.530000E-01   1.00800           0   0.00000       0.00000    
     11009 IM1      247      IM1      C4       CD2R5B    1.73480       11.6110           0 -0.868000       1.30000    
     11010 IM1      247      IM1      DC4      DRUD     -1.61680      0.400000           0   0.00000       0.00000    
     11011 IM1      247      IM1      H6       HDR5B    0.730000E-01   1.00800           0   0.00000       0.00000    
     11012 IM1      247      IM1      N2       ND2R5B    1.59050       13.6070           0 -0.840000       1.00000    
     11013 IM1      247      IM1      DN2      DRUD     -1.59050      0.400000           0   0.00000       0.00000    
     11014 IM1      247      IM1      H7       DUMH      0.00000       1.00800           0   0.00000       0.00000    
     11015 IM1      247      IM1      LPN21    LPD     -0.474000       0.00000          -1   0.00000       0.00000    
     11016 IM1      248      IM1      C1       CD33G     1.64330       11.6110           0  -1.08100       1.00000    
     11017 IM1      248      IM1      DC1      DRUD     -1.80430      0.400000           0   0.00000       0.00000    
     11018 IM1      248      IM1      H1       HDA3A    0.940000E-01   1.00800           0   0.00000       0.00000    
     11019 IM1      248      IM1      H2       HDA3A    0.940000E-01   1.00800           0   0.00000       0.00000    
     11020 IM1      248      IM1      H3       HDA3A    0.940000E-01   1.00800           0   0.00000       0.00000    
     11021 IM1      248      IM1      N1       ND2R5A    1.92920       13.6070           0  -1.06300       1.30000    
     11022 IM1      248      IM1      DN1      DRUD     -1.78920      0.400000           0   0.00000       0.00000    
     11023 IM1      248      IM1      C2       CD2R5A    1.66810       11.6110           0  -1.37800       1.30000    
     11024 IM1      248      IM1      DC2      DRUD     -2.03710      0.400000           0   0.00000       0.00000    
     11025 IM1      248      IM1      H4       HDR5A    0.150000       1.00800           0   0.00000       0.00000    
     11026 IM1      248      IM1      C3       CD2R5A    2.22510       11.6110           0  -1.37800       1.30000    
     11027 IM1      248      IM1      DC3      DRUD     -2.03710      0.400000           0   0.00000       0.00000    
     11028 IM1      248      IM1      H5       HDR5A    0.530000E-01   1.00800           0   0.00000       0.00000    
     11029 IM1      248      IM1      C4       CD2R5B    1.73480       11.6110           0 -0.868000       1.30000    
     11030 IM1      248      IM1      DC4      DRUD     -1.61680      0.400000           0   0.00000       0.00000    
     11031 IM1      248      IM1      H6       HDR5B    0.730000E-01   1.00800           0   0.00000       0.00000    
     11032 IM1      248      IM1      N2       ND2R5B    1.59050       13.6070           0 -0.840000       1.00000    
     11033 IM1      248      IM1      DN2      DRUD     -1.59050      0.400000           0   0.00000       0.00000    
     11034 IM1      248      IM1      H7       DUMH      0.00000       1.00800           0   0.00000       0.00000    
     11035 IM1      248      IM1      LPN21    LPD     -0.474000       0.00000          -1   0.00000       0.00000    
     11036 IM1      249      IM1      C1       CD33G     1.64330       11.6110           0  -1.08100       1.00000    
     11037 IM1      249      IM1      DC1      DRUD     -1.80430      0.400000           0   0.00000       0.00000    
     11038 IM1      249      IM1      H1       HDA3A    0.940000E-01   1.00800           0   0.00000       0.00000    
     11039 IM1      249      IM1      H2       HDA3A    0.940000E-01   1.00800           0   0.00000       0.00000    
     11040 IM1      249      IM1      H3       HDA3A    0.940000E-01   1.00800           0   0.00000       0.00000    
     11041 IM1      249      IM1      N1       ND2R5A    1.92920       13.6070           0  -1.06300       1.30000    
     11042 IM1      249      IM1      DN1      DRUD     -1.78920      0.400000           0   0.00000       0.00000    
     11043 IM1      249      IM1      C2       CD2R5A    1.66810       11.6110           0  -1.37800       1.30000    
     11044 IM1      249      IM1      DC2      DRUD     -2.03710      0.400000           0   0.00000       0.00000    
     11045 IM1      249      IM1      H4       HDR5A    0.150000       1.00800           0   0.00000       0.00000    
     11046 IM1      249      IM1      C3       CD2R5A    2.22510       11.6110           0  -1.37800       1.30000    
     11047 IM1      249      IM1      DC3      DRUD     -2.03710      0.400000           0   0.00000       0.00000    
     11048 IM1      249      IM1      H5       HDR5A    0.530000E-01   1.00800           0   0.00000       0.00000    
     11049 IM1      249      IM1      C4       CD2R5B    1.73480       11.6110           0 -0.868000       1.30000    
     11050 IM1      249      IM1      DC4      DRUD     -1.61680      0.400000           0   0.00000       0.00000    
     11051 IM1      249      IM1      H6       HDR5B    0.730000E-01   1.00800           0   0.00000       0.00000    
     11052 IM1      249      IM1      N2       ND2R5B    1.59050       13.6070           0 -0.840000       1.00000    
     11053 IM1      249      IM1      DN2      DRUD     -1.59050      0.400000           0   0.00000       0.00000    
     11054 IM1      249      IM1      H7       DUMH      0.00000       1.00800           0   0.00000       0.00000    
     11055 IM1      249      IM1      LPN21    LPD     -0.474000       0.00000          -1   0.00000       0.00000    
     11056 IM1      250      IM1      C1       CD33G     1.64330       11.6110           0  -1.08100       1.00000    
     11057 IM1      250      IM1      DC1      DRUD     -1.80430      0.400000           0   0.00000       0.00000    
     11058 IM1      250      IM1      H1       HDA3A    0.940000E-01   1.00800           0   0.00000       0.00000    
     11059 IM1      250      IM1      H2       HDA3A    0.940000E-01   1.00800           0   0.00000       0.00000    
     11060 IM1      250      IM1      H3       HDA3A    0.940000E-01   1.00800           0   0.00000       0.00000    
     11061 IM1      250      IM1      N1       ND2R5A    1.92920       13.6070           0  -1.06300       1.30000    
     11062 IM1      250      IM1      DN1      DRUD     -1.78920      0.400000           0   0.00000       0.00000    
     11063 IM1      250      IM1      C2       CD2R5A    1.66810       11.6110           0  -1.37800       1.30000    
     11064 IM1      250      IM1      DC2      DRUD     -2.03710      0.400000           0   0.00000       0.00000    
     11065 IM1      250      IM1      H4       HDR5A    0.150000       1.00800           0   0.00000       0.00000    
     11066 IM1      250      IM1      C3       CD2R5A    2.22510       11.6110           0  -1.37800       1.30000    
     11067 IM1      250      IM1      DC3      DRUD     -2.03710      0.400000           0   0.00000       0.00000    
     11068 IM1      250      IM1      H5       HDR5A    0.530000E-01   1.00800           0   0.00000       0.00000    
     11069 IM1      250      IM1      C4       CD2R5B    1.73480       11.6110           0 -0.868000       1.30000    
     11070 IM1      250      IM1      DC4      DRUD     -1.61680      0.400000           0   0.00000       0.00000    
     11071 IM1      250      IM1      H6       HDR5B    0.730000E-01   1.00800           0   0.00000       0.00000    
     11072 IM1      250      IM1      N2       ND2R5B    1.59050       13.6070           0 -0.840000       1.00000    
     11073 IM1      250      IM1      DN2      DRUD     -1.59050      0.400000           0   0.00000       0.00000    
     11074 IM1      250      IM1      H7       DUMH      0.00000       1.00800           0   0.00000       0.00000    
     11075 IM1      250      IM1      LPN21    LPD     -0.474000       0.00000          -1   0.00000       0.00000    
     11076 IM1      251      IM1      C1       CD33G     1.64330       11.6110           0  -1.08100       1.00000    
     11077 IM1      251      IM1      DC1      DRUD     -1.80430      0.400000           0   0.00000       0.00000    
     11078 IM1      251      IM1      H1       HDA3A    0.940000E-01   1.00800           0   0.00000       0.00000    
     11079 IM1      251      IM1      H2       HDA3A    0.940000E-01   1.00800           0   0.00000       0.00000    
     11080 IM1      251      IM1      H3       HDA3A    0.940000E-01   1.00800           0   0.00000       0.00000    
     11081 IM1      251      IM1      N1       ND2R5A    1.92920       13.6070           0  -1.06300       1.30000    
     11082 IM1      251      IM1      DN1      DRUD     -1.78920      0.400000           0   0.00000       0.00000    
     11083 IM1      251      IM1      C2       CD2R5A    1.66810       11.6110           0  -1.37800       1.30000    
     11084 IM1      251      IM1      DC2      DRUD     -2.03710      0.400000           0   0.00000       0.00000    
     11085 IM1      251      IM1      H4       HDR5A    0.150000       1.00800           0   0.00000       0.00000    
     11086 IM1      251      IM1      C3       CD2R5A    2.22510       11.6110           0  -1.37800       1.30000    
     11087 IM1      251      IM1      DC3      DRUD     -2.03710      0.400000           0   0.00000       0.00000    
     11088 IM1      251      IM1      H5       HDR5A    0.530000E-01   1.00800           0   0.00000       0.00000    
     11089 IM1      251      IM1      C4       CD2R5B    1.73480       11.6110           0 -0.868000       1.30000    
     11090 IM1      251      IM1      DC4      DRUD     -1.61680      0.400000           0   0.00000       0.00000    
     11091 IM1      251      IM1      H6       HDR5B    0.730000E-01   1.00800           0   0.00000       0.00000    
     11092 IM1      251      IM1      N2       ND2R5B    1.59050       13.6070           0 -0.840000       1.00000    
     11093 IM1      251      IM1      DN2      DRUD     -1.59050      0.400000           0   0.00000       0.00000    
     11094 IM1      251      IM1      H7       DUMH      0.00000       1.00800           0   0.00000       0.00000    
     11095 IM1      251      IM1      LPN21    LPD     -0.474000       0.00000          -1   0.00000       0.00000    
     11096 IM1      252      IM1      C1       CD33G     1.64330       11.6110           0  -1.08100       1.00000    
     11097 IM1      252      IM1      DC1      DRUD     -1.80430      0.400000           0   0.00000       0.00000    
     11098 IM1      252      IM1      H1       HDA3A    0.940000E-01   1.00800           0   0.00000       0.00000    
     11099 IM1      252      IM1      H2       HDA3A    0.940000E-01   1.00800           0   0.00000       0.00000    
     11100 IM1      252      IM1      H3       HDA3A    0.940000E-01   1.00800           0   0.00000       0.00000    
     11101 IM1      252      IM1      N1       ND2R5A    1.92920       13.6070           0  -1.06300       1.30000    
     11102 IM1      252      IM1      DN1      DRUD     -1.78920      0.400000           0   0.00000       0.00000    
     11103 IM1      252      IM1      C2       CD2R5A    1.66810       11.6110           0  -1.37800       1.30000    
     11104 IM1      252      IM1      DC2      DRUD     -2.03710      0.400000           0   0.00000       0.00000    
     11105 IM1      252      IM1      H4       HDR5A    0.150000       1.00800           0   0.00000       0.00000    
     11106 IM1      252      IM1      C3       CD2R5A    2.22510       11.6110           0  -1.37800       1.30000    
     11107 IM1      252      IM1      DC3      DRUD     -2.03710      0.400000           0   0.00000       0.00000    
     11108 IM1      252      IM1      H5       HDR5A    0.530000E-01   1.00800           0   0.00000       0.00000    
     11109 IM1      252      IM1      C4       CD2R5B    1.73480       11.6110           0 -0.868000       1.30000    
     11110 IM1      252      IM1      DC4      DRUD     -1.61680      0.400000           0   0.00000       0.00000    
     11111 IM1      252      IM1      H6       HDR5B    0.730000E-01   1.00800           0   0.00000       0.00000    
     11112 IM1      252      IM1      N2       ND2R5B    1.59050       13.6070           0 -0.840000       1.00000    
     11113 IM1      252      IM1      DN2      DRUD     -1.59050      0.400000           0   0.00000       0.00000    
     11114 IM1      252      IM1      H7       DUMH      0.00000       1.00800           0   0.00000       0.00000    
     11115 IM1      252      IM1      LPN21    LPD     -0.474000       0.00000          -1   0.00000       0.00000    
     11116 IM1      253      IM1      C1       CD33G     1.64330       11.6110           0  -1.08100       1.00000    
     11117 IM1      253      IM1      DC1      DRUD     -1.80430      0.400000           0   0.00000       0.00000    
     11118 IM1      253      IM1      H1       HDA3A    0.940000E-01   1.00800           0   0.00000       0.00000    
     11119 IM1      253      IM1      H2       HDA3A    0.940000E-01   1.00800           0   0.00000       0.00000    
     11120 IM1      253      IM1      H3       HDA3A    0.940000E-01   1.00800           0   0.00000       0.00000    
     11121 IM1      253      IM1      N1       ND2R5A    1.92920       13.6070           0  -1.06300       1.30000    
     11122 IM1      253      IM1      DN1      DRUD     -1.78920      0.400000           0   0.00000       0.00000    
     11123 IM1      253      IM1      C2       CD2R5A    1.66810       11.6110           0  -1.37800       1.30000    
     11124 IM1      253      IM1      DC2      DRUD     -2.03710      0.400000           0   0.00000       0.00000    
     11125 IM1      253      IM1      H4       HDR5A    0.150000       1.00800           0   0.00000       0.00000    
     11126 IM1      253      IM1      C3       CD2R5A    2.22510       11.6110           0  -1.37800       1.30000    
     11127 IM1      253      IM1      DC3      DRUD     -2.03710      0.400000           0   0.00000       0.00000    
     11128 IM1      253      IM1      H5       HDR5A    0.530000E-01   1.00800           0   0.00000       0.00000    
     11129 IM1      253      IM1      C4       CD2R5B    1.73480       11.6110           0 -0.868000       1.30000    
     11130 IM1      253      IM1      DC4      DRUD     -1.61680      0.400000           0   0.00000       0.00000    
     11131 IM1      253      IM1      H6       HDR5B    0.730000E-01   1.00800           0   0.00000       0.00000    
     11132 IM1      253      IM1      N2       ND2R5B    1.59050       13.6070           0 -0.840000       1.00000    
     11133 IM1      253      IM1      DN2      DRUD     -1.59050      0.400000           0   0.00000       0.00000    
     11134 IM1      253      IM1      H7       DUMH      0.00000       1.00800           0   0.00000       0.00000    
     11135 IM1      253      IM1      LPN21    LPD     -0.474000       0.00000          -1   0.00000       0.00000    
     11136 IM1      254      IM1      C1       CD33G     1.64330       11.6110           0  -1.08100       1.00000    
     11137 IM1      254      IM1      DC1      DRUD     -1.80430      0.400000           0   0.00000       0.00000    
     11138 IM1      254      IM1      H1       HDA3A    0.940000E-01   1.00800           0   0.00000       0.00000    
     11139 IM1      254      IM1      H2       HDA3A    0.940000E-01   1.00800           0   0.00000       0.00000    
     11140 IM1      254      IM1      H3       HDA3A    0.940000E-01   1.00800           0   0.00000       0.00000    
     11141 IM1      254      IM1      N1       ND2R5A    1.92920       13.6070           0  -1.06300       1.30000    
     11142 IM1      254      IM1      DN1      DRUD     -1.78920      0.400000           0   0.00000       0.00000    
     11143 IM1      254      IM1      C2       CD2R5A    1.66810       11.6110           0  -1.37800       1.30000    
     11144 IM1      254      IM1      DC2      DRUD     -2.03710      0.400000           0   0.00000       0.00000    
     11145 IM1      254      IM1      H4       HDR5A    0.150000       1.00800           0   0.00000       0.00000    
     11146 IM1      254      IM1      C3       CD2R5A    2.22510       11.6110           0  -1.37800       1.30000    
     11147 IM1      254      IM1      DC3      DRUD     -2.03710      0.400000           0   0.00000       0.00000    
     11148 IM1      254      IM1      H5       HDR5A    0.530000E-01   1.00800           0   0.00000       0.00000    
     11149 IM1      254      IM1      C4       CD2R5B    1.73480       11.6110           0 -0.868000       1.30000    
     11150 IM1      254      IM1      DC4      DRUD     -1.61680      0.400000           0   0.00000       0.00000    
     11151 IM1      254      IM1      H6       HDR5B    0.730000E-01   1.00800           0   0.00000       0.00000    
     11152 IM1      254      IM1      N2       ND2R5B    1.59050       13.6070           0 -0.840000       1.00000    
     11153 IM1      254      IM1      DN2      DRUD     -1.59050      0.400000           0   0.00000       0.00000    
     11154 IM1      254      IM1      H7       DUMH      0.00000       1.00800           0   0.00000       0.00000    
     11155 IM1      254      IM1      LPN21    LPD     -0.474000       0.00000          -1   0.00000       0.00000    
     11156 IM1      255      IM1      C1       CD33G     1.64330       11.6110           0  -1.08100       1.00000    
     11157 IM1      255      IM1      DC1      DRUD     -1.80430      0.400000           0   0.00000       0.00000    
     11158 IM1      255      IM1      H1       HDA3A    0.940000E-01   1.00800           0   0.00000       0.00000    
     11159 IM1      255      IM1      H2       HDA3A    0.940000E-01   1.00800           0   0.00000       0.00000    
     11160 IM1      255      IM1      H3       HDA3A    0.940000E-01   1.00800           0   0.00000       0.00000    
     11161 IM1      255      IM1      N1       ND2R5A    1.92920       13.6070           0  -1.06300       1.30000    
     11162 IM1      255      IM1      DN1      DRUD     -1.78920      0.400000           0   0.00000       0.00000    
     11163 IM1      255      IM1      C2       CD2R5A    1.66810       11.6110           0  -1.37800       1.30000    
     11164 IM1      255      IM1      DC2      DRUD     -2.03710      0.400000           0   0.00000       0.00000    
     11165 IM1      255      IM1      H4       HDR5A    0.150000       1.00800           0   0.00000       0.00000    
     11166 IM1      255      IM1      C3       CD2R5A    2.22510       11.6110           0  -1.37800       1.30000    
     11167 IM1      255      IM1      DC3      DRUD     -2.03710      0.400000           0   0.00000       0.00000    
     11168 IM1      255      IM1      H5       HDR5A    0.530000E-01   1.00800           0   0.00000       0.00000    
     11169 IM1      255      IM1      C4       CD2R5B    1.73480       11.6110           0 -0.868000       1.30000    
     11170 IM1      255      IM1      DC4      DRUD     -1.61680      0.400000           0   0.00000       0.00000    
     11171 IM1      255      IM1      H6       HDR5B    0.730000E-01   1.00800           0   0.00000       0.00000    
     11172 IM1      255      IM1      N2       ND2R5B    1.59050       13.6070           0 -0.840000       1.00000    
     11173 IM1      255      IM1      DN2      DRUD     -1.59050      0.400000           0   0.00000       0.00000    
     11174 IM1      255      IM1      H7       DUMH      0.00000       1.00800           0   0.00000       0.00000    
     11175 IM1      255      IM1      LPN21    LPD     -0.474000       0.00000          -1   0.00000       0.00000    
     11176 IM1      256      IM1      C1       CD33G     1.64330       11.6110           0  -1.08100       1.00000    
     11177 IM1      256      IM1      DC1      DRUD     -1.80430      0.400000           0   0.00000       0.00000    
     11178 IM1      256      IM1      H1       HDA3A    0.940000E-01   1.00800           0   0.00000       0.00000    
     11179 IM1      256      IM1      H2       HDA3A    0.940000E-01   1.00800           0   0.00000       0.00000    
     11180 IM1      256      IM1      H3       HDA3A    0.940000E-01   1.00800           0   0.00000       0.00000    
     11181 IM1      256      IM1      N1       ND2R5A    1.92920       13.6070           0  -1.06300       1.30000    
     11182 IM1      256      IM1      DN1      DRUD     -1.78920      0.400000           0   0.00000       0.00000    
     11183 IM1      256      IM1      C2       CD2R5A    1.66810       11.6110           0  -1.37800       1.30000    
     11184 IM1      256      IM1      DC2      DRUD     -2.03710      0.400000           0   0.00000       0.00000    
     11185 IM1      256      IM1      H4       HDR5A    0.150000       1.00800           0   0.00000       0.00000    
     11186 IM1      256      IM1      C3       CD2R5A    2.22510       11.6110           0  -1.37800       1.30000    
     11187 IM1      256      IM1      DC3      DRUD     -2.03710      0.400000           0   0.00000       0.00000    
     11188 IM1      256      IM1      H5       HDR5A    0.530000E-01   1.00800           0   0.00000       0.00000    
     11189 IM1      256      IM1      C4       CD2R5B    1.73480       11.6110           0 -0.868000       1.30000    
     11190 IM1      256      IM1      DC4      DRUD     -1.61680      0.400000           0   0.00000       0.00000    
     11191 IM1      256      IM1      H6       HDR5B    0.730000E-01   1.00800           0   0.00000       0.00000    
     11192 IM1      256      IM1      N2       ND2R5B    1.59050       13.6070           0 -0.840000       1.00000    
     11193 IM1      256      IM1      DN2      DRUD     -1.59050      0.400000           0   0.00000       0.00000    
     11194 IM1      256      IM1      H7       DUMH      0.00000       1.00800           0   0.00000       0.00000    
     11195 IM1      256      IM1      LPN21    LPD     -0.474000       0.00000          -1   0.00000       0.00000    
     11196 IM1      257      IM1      C1       CD33G     1.64330       11.6110           0  -1.08100       1.00000    
     11197 IM1      257      IM1      DC1      DRUD     -1.80430      0.400000           0   0.00000       0.00000    
     11198 IM1      257      IM1      H1       HDA3A    0.940000E-01   1.00800           0   0.00000       0.00000    
     11199 IM1      257      IM1      H2       HDA3A    0.940000E-01   1.00800           0   0.00000       0.00000    
     11200 IM1      257      IM1      H3       HDA3A    0.940000E-01   1.00800           0   0.00000       0.00000    
     11201 IM1      257      IM1      N1       ND2R5A    1.92920       13.6070           0  -1.06300       1.30000    
     11202 IM1      257      IM1      DN1      DRUD     -1.78920      0.400000           0   0.00000       0.00000    
     11203 IM1      257      IM1      C2       CD2R5A    1.66810       11.6110           0  -1.37800       1.30000    
     11204 IM1      257      IM1      DC2      DRUD     -2.03710      0.400000           0   0.00000       0.00000    
     11205 IM1      257      IM1      H4       HDR5A    0.150000       1.00800           0   0.00000       0.00000    
     11206 IM1      257      IM1      C3       CD2R5A    2.22510       11.6110           0  -1.37800       1.30000    
     11207 IM1      257      IM1      DC3      DRUD     -2.03710      0.400000           0   0.00000       0.00000    
     11208 IM1      257      IM1      H5       HDR5A    0.530000E-01   1.00800           0   0.00000       0.00000    
     11209 IM1      257      IM1      C4       CD2R5B    1.73480       11.6110           0 -0.868000       1.30000    
     11210 IM1      257      IM1      DC4      DRUD     -1.61680      0.400000           0   0.00000       0.00000    
     11211 IM1      257      IM1      H6       HDR5B    0.730000E-01   1.00800           0   0.00000       0.00000    
     11212 IM1      257      IM1      N2       ND2R5B    1.59050       13.6070           0 -0.840000       1.00000    
     11213 IM1      257      IM1      DN2      DRUD     -1.59050      0.400000           0   0.00000       0.00000    
     11214 IM1      257      IM1      H7       DUMH      0.00000       1.00800           0   0.00000       0.00000    
     11215 IM1      257      IM1      LPN21    LPD     -0.474000       0.00000          -1   0.00000       0.00000    
     11216 IM1      258      IM1      C1       CD33G     1.64330       11.6110           0  -1.08100       1.00000    
     11217 IM1      258      IM1      DC1      DRUD     -1.80430      0.400000           0   0.00000       0.00000    
     11218 IM1      258      IM1      H1       HDA3A    0.940000E-01   1.00800           0   0.00000       0.00000    
     11219 IM1      258      IM1      H2       HDA3A    0.940000E-01   1.00800           0   0.00000       0.00000    
     11220 IM1      258      IM1      H3       HDA3A    0.940000E-01   1.00800           0   0.00000       0.00000    
     11221 IM1      258      IM1      N1       ND2R5A    1.92920       13.6070           0  -1.06300       1.30000    
     11222 IM1      258      IM1      DN1      DRUD     -1.78920      0.400000           0   0.00000       0.00000    
     11223 IM1      258      IM1      C2       CD2R5A    1.66810       11.6110           0  -1.37800       1.30000    
     11224 IM1      258      IM1      DC2      DRUD     -2.03710      0.400000           0   0.00000       0.00000    
     11225 IM1      258      IM1      H4       HDR5A    0.150000       1.00800           0   0.00000       0.00000    
     11226 IM1      258      IM1      C3       CD2R5A    2.22510       11.6110           0  -1.37800       1.30000    
     11227 IM1      258      IM1      DC3      DRUD     -2.03710      0.400000           0   0.00000       0.00000    
     11228 IM1      258      IM1      H5       HDR5A    0.530000E-01   1.00800           0   0.00000       0.00000    
     11229 IM1      258      IM1      C4       CD2R5B    1.73480       11.6110           0 -0.868000       1.30000    
     11230 IM1      258      IM1      DC4      DRUD     -1.61680      0.400000           0   0.00000       0.00000    
     11231 IM1      258      IM1      H6       HDR5B    0.730000E-01   1.00800           0   0.00000       0.00000    
     11232 IM1      258      IM1      N2       ND2R5B    1.59050       13.6070           0 -0.840000       1.00000    
     11233 IM1      258      IM1      DN2      DRUD     -1.59050      0.400000           0   0.00000       0.00000    
     11234 IM1      258      IM1      H7       DUMH      0.00000       1.00800           0   0.00000       0.00000    
     11235 IM1      258      IM1      LPN21    LPD     -0.474000       0.00000          -1   0.00000       0.00000    
     11236 IM1      259      IM1      C1       CD33G     1.64330       11.6110           0  -1.08100       1.00000    
     11237 IM1      259      IM1      DC1      DRUD     -1.80430      0.400000           0   0.00000       0.00000    
     11238 IM1      259      IM1      H1       HDA3A    0.940000E-01   1.00800           0   0.00000       0.00000    
     11239 IM1      259      IM1      H2       HDA3A    0.940000E-01   1.00800           0   0.00000       0.00000    
     11240 IM1      259      IM1      H3       HDA3A    0.940000E-01   1.00800           0   0.00000       0.00000    
     11241 IM1      259      IM1      N1       ND2R5A    1.92920       13.6070           0  -1.06300       1.30000    
     11242 IM1      259      IM1      DN1      DRUD     -1.78920      0.400000           0   0.00000       0.00000    
     11243 IM1      259      IM1      C2       CD2R5A    1.66810       11.6110           0  -1.37800       1.30000    
     11244 IM1      259      IM1      DC2      DRUD     -2.03710      0.400000           0   0.00000       0.00000    
     11245 IM1      259      IM1      H4       HDR5A    0.150000       1.00800           0   0.00000       0.00000    
     11246 IM1      259      IM1      C3       CD2R5A    2.22510       11.6110           0  -1.37800       1.30000    
     11247 IM1      259      IM1      DC3      DRUD     -2.03710      0.400000           0   0.00000       0.00000    
     11248 IM1      259      IM1      H5       HDR5A    0.530000E-01   1.00800           0   0.00000       0.00000    
     11249 IM1      259      IM1      C4       CD2R5B    1.73480       11.6110           0 -0.868000       1.30000    
     11250 IM1      259      IM1      DC4      DRUD     -1.61680      0.400000           0   0.00000       0.00000    
     11251 IM1      259      IM1      H6       HDR5B    0.730000E-01   1.00800           0   0.00000       0.00000    
     11252 IM1      259      IM1      N2       ND2R5B    1.59050       13.6070           0 -0.840000       1.00000    
     11253 IM1      259      IM1      DN2      DRUD     -1.59050      0.400000           0   0.00000       0.00000    
     11254 IM1      259      IM1      H7       DUMH      0.00000       1.00800           0   0.00000       0.00000    
     11255 IM1      259      IM1      LPN21    LPD     -0.474000       0.00000          -1   0.00000       0.00000    
     11256 IM1      260      IM1      C1       CD33G     1.64330       11.6110           0  -1.08100       1.00000    
     11257 IM1      260      IM1      DC1      DRUD     -1.80430      0.400000           0   0.00000       0.00000    
     11258 IM1      260      IM1      H1       HDA3A    0.940000E-01   1.00800           0   0.00000       0.00000    
     11259 IM1      260      IM1      H2       HDA3A    0.940000E-01   1.00800           0   0.00000       0.00000    
     11260 IM1      260      IM1      H3       HDA3A    0.940000E-01   1.00800           0   0.00000       0.00000    
     11261 IM1      260      IM1      N1       ND2R5A    1.92920       13.6070           0  -1.06300       1.30000    
     11262 IM1      260      IM1      DN1      DRUD     -1.78920      0.400000           0   0.00000       0.00000    
     11263 IM1      260      IM1      C2       CD2R5A    1.66810       11.6110           0  -1.37800       1.30000    
     11264 IM1      260      IM1      DC2      DRUD     -2.03710      0.400000           0   0.00000       0.00000    
     11265 IM1      260      IM1      H4       HDR5A    0.150000       1.00800           0   0.00000       0.00000    
     11266 IM1      260      IM1      C3       CD2R5A    2.22510       11.6110           0  -1.37800       1.30000    
     11267 IM1      260      IM1      DC3      DRUD     -2.03710      0.400000           0   0.00000       0.00000    
     11268 IM1      260      IM1      H5       HDR5A    0.530000E-01   1.00800           0   0.00000       0.00000    
     11269 IM1      260      IM1      C4       CD2R5B    1.73480       11.6110           0 -0.868000       1.30000    
     11270 IM1      260      IM1      DC4      DRUD     -1.61680      0.400000           0   0.00000       0.00000    
     11271 IM1      260      IM1      H6       HDR5B    0.730000E-01   1.00800           0   0.00000       0.00000    
     11272 IM1      260      IM1      N2       ND2R5B    1.59050       13.6070           0 -0.840000       1.00000    
     11273 IM1      260      IM1      DN2      DRUD     -1.59050      0.400000           0   0.00000       0.00000    
     11274 IM1      260      IM1      H7       DUMH      0.00000       1.00800           0   0.00000       0.00000    
     11275 IM1      260      IM1      LPN21    LPD     -0.474000       0.00000          -1   0.00000       0.00000    
     11276 IM1      261      IM1      C1       CD33G     1.64330       11.6110           0  -1.08100       1.00000    
     11277 IM1      261      IM1      DC1      DRUD     -1.80430      0.400000           0   0.00000       0.00000    
     11278 IM1      261      IM1      H1       HDA3A    0.940000E-01   1.00800           0   0.00000       0.00000    
     11279 IM1      261      IM1      H2       HDA3A    0.940000E-01   1.00800           0   0.00000       0.00000    
     11280 IM1      261      IM1      H3       HDA3A    0.940000E-01   1.00800           0   0.00000       0.00000    
     11281 IM1      261      IM1      N1       ND2R5A    1.92920       13.6070           0  -1.06300       1.30000    
     11282 IM1      261      IM1      DN1      DRUD     -1.78920      0.400000           0   0.00000       0.00000    
     11283 IM1      261      IM1      C2       CD2R5A    1.66810       11.6110           0  -1.37800       1.30000    
     11284 IM1      261      IM1      DC2      DRUD     -2.03710      0.400000           0   0.00000       0.00000    
     11285 IM1      261      IM1      H4       HDR5A    0.150000       1.00800           0   0.00000       0.00000    
     11286 IM1      261      IM1      C3       CD2R5A    2.22510       11.6110           0  -1.37800       1.30000    
     11287 IM1      261      IM1      DC3      DRUD     -2.03710      0.400000           0   0.00000       0.00000    
     11288 IM1      261      IM1      H5       HDR5A    0.530000E-01   1.00800           0   0.00000       0.00000    
     11289 IM1      261      IM1      C4       CD2R5B    1.73480       11.6110           0 -0.868000       1.30000    
     11290 IM1      261      IM1      DC4      DRUD     -1.61680      0.400000           0   0.00000       0.00000    
     11291 IM1      261      IM1      H6       HDR5B    0.730000E-01   1.00800           0   0.00000       0.00000    
     11292 IM1      261      IM1      N2       ND2R5B    1.59050       13.6070           0 -0.840000       1.00000    
     11293 IM1      261      IM1      DN2      DRUD     -1.59050      0.400000           0   0.00000       0.00000    
     11294 IM1      261      IM1      H7       DUMH      0.00000       1.00800           0   0.00000       0.00000    
     11295 IM1      261      IM1      LPN21    LPD     -0.474000       0.00000          -1   0.00000       0.00000    
     11296 IM1      262      IM1      C1       CD33G     1.64330       11.6110           0  -1.08100       1.00000    
     11297 IM1      262      IM1      DC1      DRUD     -1.80430      0.400000           0   0.00000       0.00000    
     11298 IM1      262      IM1      H1       HDA3A    0.940000E-01   1.00800           0   0.00000       0.00000    
     11299 IM1      262      IM1      H2       HDA3A    0.940000E-01   1.00800           0   0.00000       0.00000    
     11300 IM1      262      IM1      H3       HDA3A    0.940000E-01   1.00800           0   0.00000       0.00000    
     11301 IM1      262      IM1      N1       ND2R5A    1.92920       13.6070           0  -1.06300       1.30000    
     11302 IM1      262      IM1      DN1      DRUD     -1.78920      0.400000           0   0.00000       0.00000    
     11303 IM1      262      IM1      C2       CD2R5A    1.66810       11.6110           0  -1.37800       1.30000    
     11304 IM1      262      IM1      DC2      DRUD     -2.03710      0.400000           0   0.00000       0.00000    
     11305 IM1      262      IM1      H4       HDR5A    0.150000       1.00800           0   0.00000       0.00000    
     11306 IM1      262      IM1      C3       CD2R5A    2.22510       11.6110           0  -1.37800       1.30000    
     11307 IM1      262      IM1      DC3      DRUD     -2.03710      0.400000           0   0.00000       0.00000    
     11308 IM1      262      IM1      H5       HDR5A    0.530000E-01   1.00800           0   0.00000       0.00000    
     11309 IM1      262      IM1      C4       CD2R5B    1.73480       11.6110           0 -0.868000       1.30000    
     11310 IM1      262      IM1      DC4      DRUD     -1.61680      0.400000           0   0.00000       0.00000    
     11311 IM1      262      IM1      H6       HDR5B    0.730000E-01   1.00800           0   0.00000       0.00000    
     11312 IM1      262      IM1      N2       ND2R5B    1.59050       13.6070           0 -0.840000       1.00000    
     11313 IM1      262      IM1      DN2      DRUD     -1.59050      0.400000           0   0.00000       0.00000    
     11314 IM1      262      IM1      H7       DUMH      0.00000       1.00800           0   0.00000       0.00000    
     11315 IM1      262      IM1      LPN21    LPD     -0.474000       0.00000          -1   0.00000       0.00000    
     11316 IM1      263      IM1      C1       CD33G     1.64330       11.6110           0  -1.08100       1.00000    
     11317 IM1      263      IM1      DC1      DRUD     -1.80430      0.400000           0   0.00000       0.00000    
     11318 IM1      263      IM1      H1       HDA3A    0.940000E-01   1.00800           0   0.00000       0.00000    
     11319 IM1      263      IM1      H2       HDA3A    0.940000E-01   1.00800           0   0.00000       0.00000    
     11320 IM1      263      IM1      H3       HDA3A    0.940000E-01   1.00800           0   0.00000       0.00000    
     11321 IM1      263      IM1      N1       ND2R5A    1.92920       13.6070           0  -1.06300       1.30000    
     11322 IM1      263      IM1      DN1      DRUD     -1.78920      0.400000           0   0.00000       0.00000    
     11323 IM1      263      IM1      C2       CD2R5A    1.66810       11.6110           0  -1.37800       1.30000    
     11324 IM1      263      IM1      DC2      DRUD     -2.03710      0.400000           0   0.00000       0.00000    
     11325 IM1      263      IM1      H4       HDR5A    0.150000       1.00800           0   0.00000       0.00000    
     11326 IM1      263      IM1      C3       CD2R5A    2.22510       11.6110           0  -1.37800       1.30000    
     11327 IM1      263      IM1      DC3      DRUD     -2.03710      0.400000           0   0.00000       0.00000    
     11328 IM1      263      IM1      H5       HDR5A    0.530000E-01   1.00800           0   0.00000       0.00000    
     11329 IM1      263      IM1      C4       CD2R5B    1.73480       11.6110           0 -0.868000       1.30000    
     11330 IM1      263      IM1      DC4      DRUD     -1.61680      0.400000           0   0.00000       0.00000    
     11331 IM1      263      IM1      H6       HDR5B    0.730000E-01   1.00800           0   0.00000       0.00000    
     11332 IM1      263      IM1      N2       ND2R5B    1.59050       13.6070           0 -0.840000       1.00000    
     11333 IM1      263      IM1      DN2      DRUD     -1.59050      0.400000           0   0.00000       0.00000    
     11334 IM1      263      IM1      H7       DUMH      0.00000       1.00800           0   0.00000       0.00000    
     11335 IM1      263      IM1      LPN21    LPD     -0.474000       0.00000          -1   0.00000       0.00000    
     11336 IM1      264      IM1      C1       CD33G     1.64330       11.6110           0  -1.08100       1.00000    
     11337 IM1      264      IM1      DC1      DRUD     -1.80430      0.400000           0   0.00000       0.00000    
     11338 IM1      264      IM1      H1       HDA3A    0.940000E-01   1.00800           0   0.00000       0.00000    
     11339 IM1      264      IM1      H2       HDA3A    0.940000E-01   1.00800           0   0.00000       0.00000    
     11340 IM1      264      IM1      H3       HDA3A    0.940000E-01   1.00800           0   0.00000       0.00000    
     11341 IM1      264      IM1      N1       ND2R5A    1.92920       13.6070           0  -1.06300       1.30000    
     11342 IM1      264      IM1      DN1      DRUD     -1.78920      0.400000           0   0.00000       0.00000    
     11343 IM1      264      IM1      C2       CD2R5A    1.66810       11.6110           0  -1.37800       1.30000    
     11344 IM1      264      IM1      DC2      DRUD     -2.03710      0.400000           0   0.00000       0.00000    
     11345 IM1      264      IM1      H4       HDR5A    0.150000       1.00800           0   0.00000       0.00000    
     11346 IM1      264      IM1      C3       CD2R5A    2.22510       11.6110           0  -1.37800       1.30000    
     11347 IM1      264      IM1      DC3      DRUD     -2.03710      0.400000           0   0.00000       0.00000    
     11348 IM1      264      IM1      H5       HDR5A    0.530000E-01   1.00800           0   0.00000       0.00000    
     11349 IM1      264      IM1      C4       CD2R5B    1.73480       11.6110           0 -0.868000       1.30000    
     11350 IM1      264      IM1      DC4      DRUD     -1.61680      0.400000           0   0.00000       0.00000    
     11351 IM1      264      IM1      H6       HDR5B    0.730000E-01   1.00800           0   0.00000       0.00000    
     11352 IM1      264      IM1      N2       ND2R5B    1.59050       13.6070           0 -0.840000       1.00000    
     11353 IM1      264      IM1      DN2      DRUD     -1.59050      0.400000           0   0.00000       0.00000    
     11354 IM1      264      IM1      H7       DUMH      0.00000       1.00800           0   0.00000       0.00000    
     11355 IM1      264      IM1      LPN21    LPD     -0.474000       0.00000          -1   0.00000       0.00000    
     11356 IM1      265      IM1      C1       CD33G     1.64330       11.6110           0  -1.08100       1.00000    
     11357 IM1      265      IM1      DC1      DRUD     -1.80430      0.400000           0   0.00000       0.00000    
     11358 IM1      265      IM1      H1       HDA3A    0.940000E-01   1.00800           0   0.00000       0.00000    
     11359 IM1      265      IM1      H2       HDA3A    0.940000E-01   1.00800           0   0.00000       0.00000    
     11360 IM1      265      IM1      H3       HDA3A    0.940000E-01   1.00800           0   0.00000       0.00000    
     11361 IM1      265      IM1      N1       ND2R5A    1.92920       13.6070           0  -1.06300       1.30000    
     11362 IM1      265      IM1      DN1      DRUD     -1.78920      0.400000           0   0.00000       0.00000    
     11363 IM1      265      IM1      C2       CD2R5A    1.66810       11.6110           0  -1.37800       1.30000    
     11364 IM1      265      IM1      DC2      DRUD     -2.03710      0.400000           0   0.00000       0.00000    
     11365 IM1      265      IM1      H4       HDR5A    0.150000       1.00800           0   0.00000       0.00000    
     11366 IM1      265      IM1      C3       CD2R5A    2.22510       11.6110           0  -1.37800       1.30000    
     11367 IM1      265      IM1      DC3      DRUD     -2.03710      0.400000           0   0.00000       0.00000    
     11368 IM1      265      IM1      H5       HDR5A    0.530000E-01   1.00800           0   0.00000       0.00000    
     11369 IM1      265      IM1      C4       CD2R5B    1.73480       11.6110           0 -0.868000       1.30000    
     11370 IM1      265      IM1      DC4      DRUD     -1.61680      0.400000           0   0.00000       0.00000    
     11371 IM1      265      IM1      H6       HDR5B    0.730000E-01   1.00800           0   0.00000       0.00000    
     11372 IM1      265      IM1      N2       ND2R5B    1.59050       13.6070           0 -0.840000       1.00000    
     11373 IM1      265      IM1      DN2      DRUD     -1.59050      0.400000           0   0.00000       0.00000    
     11374 IM1      265      IM1      H7       DUMH      0.00000       1.00800           0   0.00000       0.00000    
     11375 IM1      265      IM1      LPN21    LPD     -0.474000       0.00000          -1   0.00000       0.00000    
     11376 IM1      266      IM1      C1       CD33G     1.64330       11.6110           0  -1.08100       1.00000    
     11377 IM1      266      IM1      DC1      DRUD     -1.80430      0.400000           0   0.00000       0.00000    
     11378 IM1      266      IM1      H1       HDA3A    0.940000E-01   1.00800           0   0.00000       0.00000    
     11379 IM1      266      IM1      H2       HDA3A    0.940000E-01   1.00800           0   0.00000       0.00000    
     11380 IM1      266      IM1      H3       HDA3A    0.940000E-01   1.00800           0   0.00000       0.00000    
     11381 IM1      266      IM1      N1       ND2R5A    1.92920       13.6070           0  -1.06300       1.30000    
     11382 IM1      266      IM1      DN1      DRUD     -1.78920      0.400000           0   0.00000       0.00000    
     11383 IM1      266      IM1      C2       CD2R5A    1.66810       11.6110           0  -1.37800       1.30000    
     11384 IM1      266      IM1      DC2      DRUD     -2.03710      0.400000           0   0.00000       0.00000    
     11385 IM1      266      IM1      H4       HDR5A    0.150000       1.00800           0   0.00000       0.00000    
     11386 IM1      266      IM1      C3       CD2R5A    2.22510       11.6110           0  -1.37800       1.30000    
     11387 IM1      266      IM1      DC3      DRUD     -2.03710      0.400000           0   0.00000       0.00000    
     11388 IM1      266      IM1      H5       HDR5A    0.530000E-01   1.00800           0   0.00000       0.00000    
     11389 IM1      266      IM1      C4       CD2R5B    1.73480       11.6110           0 -0.868000       1.30000    
     11390 IM1      266      IM1      DC4      DRUD     -1.61680      0.400000           0   0.00000       0.00000    
     11391 IM1      266      IM1      H6       HDR5B    0.730000E-01   1.00800           0   0.00000       0.00000    
     11392 IM1      266      IM1      N2       ND2R5B    1.59050       13.6070           0 -0.840000       1.00000    
     11393 IM1      266      IM1      DN2      DRUD     -1.59050      0.400000           0   0.00000       0.00000    
     11394 IM1      266      IM1      H7       DUMH      0.00000       1.00800           0   0.00000       0.00000    
     11395 IM1      266      IM1      LPN21    LPD     -0.474000       0.00000          -1   0.00000       0.00000    
     11396 IM1      267      IM1      C1       CD33G     1.64330       11.6110           0  -1.08100       1.00000    
     11397 IM1      267      IM1      DC1      DRUD     -1.80430      0.400000           0   0.00000       0.00000    
     11398 IM1      267      IM1      H1       HDA3A    0.940000E-01   1.00800           0   0.00000       0.00000    
     11399 IM1      267      IM1      H2       HDA3A    0.940000E-01   1.00800           0   0.00000       0.00000    
     11400 IM1      267      IM1      H3       HDA3A    0.940000E-01   1.00800           0   0.00000       0.00000    
     11401 IM1      267      IM1      N1       ND2R5A    1.92920       13.6070           0  -1.06300       1.30000    
     11402 IM1      267      IM1      DN1      DRUD     -1.78920      0.400000           0   0.00000       0.00000    
     11403 IM1      267      IM1      C2       CD2R5A    1.66810       11.6110           0  -1.37800       1.30000    
     11404 IM1      267      IM1      DC2      DRUD     -2.03710      0.400000           0   0.00000       0.00000    
     11405 IM1      267      IM1      H4       HDR5A    0.150000       1.00800           0   0.00000       0.00000    
     11406 IM1      267      IM1      C3       CD2R5A    2.22510       11.6110           0  -1.37800       1.30000    
     11407 IM1      267      IM1      DC3      DRUD     -2.03710      0.400000           0   0.00000       0.00000    
     11408 IM1      267      IM1      H5       HDR5A    0.530000E-01   1.00800           0   0.00000       0.00000    
     11409 IM1      267      IM1      C4       CD2R5B    1.73480       11.6110           0 -0.868000       1.30000    
     11410 IM1      267      IM1      DC4      DRUD     -1.61680      0.400000           0   0.00000       0.00000    
     11411 IM1      267      IM1      H6       HDR5B    0.730000E-01   1.00800           0   0.00000       0.00000    
     11412 IM1      267      IM1      N2       ND2R5B    1.59050       13.6070           0 -0.840000       1.00000    
     11413 IM1      267      IM1      DN2      DRUD     -1.59050      0.400000           0   0.00000       0.00000    
     11414 IM1      267      IM1      H7       DUMH      0.00000       1.00800           0   0.00000       0.00000    
     11415 IM1      267      IM1      LPN21    LPD     -0.474000       0.00000          -1   0.00000       0.00000    
     11416 IM1      268      IM1      C1       CD33G     1.64330       11.6110           0  -1.08100       1.00000    
     11417 IM1      268      IM1      DC1      DRUD     -1.80430      0.400000           0   0.00000       0.00000    
     11418 IM1      268      IM1      H1       HDA3A    0.940000E-01   1.00800           0   0.00000       0.00000    
     11419 IM1      268      IM1      H2       HDA3A    0.940000E-01   1.00800           0   0.00000       0.00000    
     11420 IM1      268      IM1      H3       HDA3A    0.940000E-01   1.00800           0   0.00000       0.00000    
     11421 IM1      268      IM1      N1       ND2R5A    1.92920       13.6070           0  -1.06300       1.30000    
     11422 IM1      268      IM1      DN1      DRUD     -1.78920      0.400000           0   0.00000       0.00000    
     11423 IM1      268      IM1      C2       CD2R5A    1.66810       11.6110           0  -1.37800       1.30000    
     11424 IM1      268      IM1      DC2      DRUD     -2.03710      0.400000           0   0.00000       0.00000    
     11425 IM1      268      IM1      H4       HDR5A    0.150000       1.00800           0   0.00000       0.00000    
     11426 IM1      268      IM1      C3       CD2R5A    2.22510       11.6110           0  -1.37800       1.30000    
     11427 IM1      268      IM1      DC3      DRUD     -2.03710      0.400000           0   0.00000       0.00000    
     11428 IM1      268      IM1      H5       HDR5A    0.530000E-01   1.00800           0   0.00000       0.00000    
     11429 IM1      268      IM1      C4       CD2R5B    1.73480       11.6110           0 -0.868000       1.30000    
     11430 IM1      268      IM1      DC4      DRUD     -1.61680      0.400000           0   0.00000       0.00000    
     11431 IM1      268      IM1      H6       HDR5B    0.730000E-01   1.00800           0   0.00000       0.00000    
     11432 IM1      268      IM1      N2       ND2R5B    1.59050       13.6070           0 -0.840000       1.00000    
     11433 IM1      268      IM1      DN2      DRUD     -1.59050      0.400000           0   0.00000       0.00000    
     11434 IM1      268      IM1      H7       DUMH      0.00000       1.00800           0   0.00000       0.00000    
     11435 IM1      268      IM1      LPN21    LPD     -0.474000       0.00000          -1   0.00000       0.00000    
     11436 IM1      269      IM1      C1       CD33G     1.64330       11.6110           0  -1.08100       1.00000    
     11437 IM1      269      IM1      DC1      DRUD     -1.80430      0.400000           0   0.00000       0.00000    
     11438 IM1      269      IM1      H1       HDA3A    0.940000E-01   1.00800           0   0.00000       0.00000    
     11439 IM1      269      IM1      H2       HDA3A    0.940000E-01   1.00800           0   0.00000       0.00000    
     11440 IM1      269      IM1      H3       HDA3A    0.940000E-01   1.00800           0   0.00000       0.00000    
     11441 IM1      269      IM1      N1       ND2R5A    1.92920       13.6070           0  -1.06300       1.30000    
     11442 IM1      269      IM1      DN1      DRUD     -1.78920      0.400000           0   0.00000       0.00000    
     11443 IM1      269      IM1      C2       CD2R5A    1.66810       11.6110           0  -1.37800       1.30000    
     11444 IM1      269      IM1      DC2      DRUD     -2.03710      0.400000           0   0.00000       0.00000    
     11445 IM1      269      IM1      H4       HDR5A    0.150000       1.00800           0   0.00000       0.00000    
     11446 IM1      269      IM1      C3       CD2R5A    2.22510       11.6110           0  -1.37800       1.30000    
     11447 IM1      269      IM1      DC3      DRUD     -2.03710      0.400000           0   0.00000       0.00000    
     11448 IM1      269      IM1      H5       HDR5A    0.530000E-01   1.00800           0   0.00000       0.00000    
     11449 IM1      269      IM1      C4       CD2R5B    1.73480       11.6110           0 -0.868000       1.30000    
     11450 IM1      269      IM1      DC4      DRUD     -1.61680      0.400000           0   0.00000       0.00000    
     11451 IM1      269      IM1      H6       HDR5B    0.730000E-01   1.00800           0   0.00000       0.00000    
     11452 IM1      269      IM1      N2       ND2R5B    1.59050       13.6070           0 -0.840000       1.00000    
     11453 IM1      269      IM1      DN2      DRUD     -1.59050      0.400000           0   0.00000       0.00000    
     11454 IM1      269      IM1      H7       DUMH      0.00000       1.00800           0   0.00000       0.00000    
     11455 IM1      269      IM1      LPN21    LPD     -0.474000       0.00000          -1   0.00000       0.00000    
     11456 IM1      270      IM1      C1       CD33G     1.64330       11.6110           0  -1.08100       1.00000    
     11457 IM1      270      IM1      DC1      DRUD     -1.80430      0.400000           0   0.00000       0.00000    
     11458 IM1      270      IM1      H1       HDA3A    0.940000E-01   1.00800           0   0.00000       0.00000    
     11459 IM1      270      IM1      H2       HDA3A    0.940000E-01   1.00800           0   0.00000       0.00000    
     11460 IM1      270      IM1      H3       HDA3A    0.940000E-01   1.00800           0   0.00000       0.00000    
     11461 IM1      270      IM1      N1       ND2R5A    1.92920       13.6070           0  -1.06300       1.30000    
     11462 IM1      270      IM1      DN1      DRUD     -1.78920      0.400000           0   0.00000       0.00000    
     11463 IM1      270      IM1      C2       CD2R5A    1.66810       11.6110           0  -1.37800       1.30000    
     11464 IM1      270      IM1      DC2      DRUD     -2.03710      0.400000           0   0.00000       0.00000    
     11465 IM1      270      IM1      H4       HDR5A    0.150000       1.00800           0   0.00000       0.00000    
     11466 IM1      270      IM1      C3       CD2R5A    2.22510       11.6110           0  -1.37800       1.30000    
     11467 IM1      270      IM1      DC3      DRUD     -2.03710      0.400000           0   0.00000       0.00000    
     11468 IM1      270      IM1      H5       HDR5A    0.530000E-01   1.00800           0   0.00000       0.00000    
     11469 IM1      270      IM1      C4       CD2R5B    1.73480       11.6110           0 -0.868000       1.30000    
     11470 IM1      270      IM1      DC4      DRUD     -1.61680      0.400000           0   0.00000       0.00000    
     11471 IM1      270      IM1      H6       HDR5B    0.730000E-01   1.00800           0   0.00000       0.00000    
     11472 IM1      270      IM1      N2       ND2R5B    1.59050       13.6070           0 -0.840000       1.00000    
     11473 IM1      270      IM1      DN2      DRUD     -1.59050      0.400000           0   0.00000       0.00000    
     11474 IM1      270      IM1      H7       DUMH      0.00000       1.00800           0   0.00000       0.00000    
     11475 IM1      270      IM1      LPN21    LPD     -0.474000       0.00000          -1   0.00000       0.00000    
     11476 IM1      271      IM1      C1       CD33G     1.64330       11.6110           0  -1.08100       1.00000    
     11477 IM1      271      IM1      DC1      DRUD     -1.80430      0.400000           0   0.00000       0.00000    
     11478 IM1      271      IM1      H1       HDA3A    0.940000E-01   1.00800           0   0.00000       0.00000    
     11479 IM1      271      IM1      H2       HDA3A    0.940000E-01   1.00800           0   0.00000       0.00000    
     11480 IM1      271      IM1      H3       HDA3A    0.940000E-01   1.00800           0   0.00000       0.00000    
     11481 IM1      271      IM1      N1       ND2R5A    1.92920       13.6070           0  -1.06300       1.30000    
     11482 IM1      271      IM1      DN1      DRUD     -1.78920      0.400000           0   0.00000       0.00000    
     11483 IM1      271      IM1      C2       CD2R5A    1.66810       11.6110           0  -1.37800       1.30000    
     11484 IM1      271      IM1      DC2      DRUD     -2.03710      0.400000           0   0.00000       0.00000    
     11485 IM1      271      IM1      H4       HDR5A    0.150000       1.00800           0   0.00000       0.00000    
     11486 IM1      271      IM1      C3       CD2R5A    2.22510       11.6110           0  -1.37800       1.30000    
     11487 IM1      271      IM1      DC3      DRUD     -2.03710      0.400000           0   0.00000       0.00000    
     11488 IM1      271      IM1      H5       HDR5A    0.530000E-01   1.00800           0   0.00000       0.00000    
     11489 IM1      271      IM1      C4       CD2R5B    1.73480       11.6110           0 -0.868000       1.30000    
     11490 IM1      271      IM1      DC4      DRUD     -1.61680      0.400000           0   0.00000       0.00000    
     11491 IM1      271      IM1      H6       HDR5B    0.730000E-01   1.00800           0   0.00000       0.00000    
     11492 IM1      271      IM1      N2       ND2R5B    1.59050       13.6070           0 -0.840000       1.00000    
     11493 IM1      271      IM1      DN2      DRUD     -1.59050      0.400000           0   0.00000       0.00000    
     11494 IM1      271      IM1      H7       DUMH      0.00000       1.00800           0   0.00000       0.00000    
     11495 IM1      271      IM1      LPN21    LPD     -0.474000       0.00000          -1   0.00000       0.00000    
     11496 IM1      272      IM1      C1       CD33G     1.64330       11.6110           0  -1.08100       1.00000    
     11497 IM1      272      IM1      DC1      DRUD     -1.80430      0.400000           0   0.00000       0.00000    
     11498 IM1      272      IM1      H1       HDA3A    0.940000E-01   1.00800           0   0.00000       0.00000    
     11499 IM1      272      IM1      H2       HDA3A    0.940000E-01   1.00800           0   0.00000       0.00000    
     11500 IM1      272      IM1      H3       HDA3A    0.940000E-01   1.00800           0   0.00000       0.00000    
     11501 IM1      272      IM1      N1       ND2R5A    1.92920       13.6070           0  -1.06300       1.30000    
     11502 IM1      272      IM1      DN1      DRUD     -1.78920      0.400000           0   0.00000       0.00000    
     11503 IM1      272      IM1      C2       CD2R5A    1.66810       11.6110           0  -1.37800       1.30000    
     11504 IM1      272      IM1      DC2      DRUD     -2.03710      0.400000           0   0.00000       0.00000    
     11505 IM1      272      IM1      H4       HDR5A    0.150000       1.00800           0   0.00000       0.00000    
     11506 IM1      272      IM1      C3       CD2R5A    2.22510       11.6110           0  -1.37800       1.30000    
     11507 IM1      272      IM1      DC3      DRUD     -2.03710      0.400000           0   0.00000       0.00000    
     11508 IM1      272      IM1      H5       HDR5A    0.530000E-01   1.00800           0   0.00000       0.00000    
     11509 IM1      272      IM1      C4       CD2R5B    1.73480       11.6110           0 -0.868000       1.30000    
     11510 IM1      272      IM1      DC4      DRUD     -1.61680      0.400000           0   0.00000       0.00000    
     11511 IM1      272      IM1      H6       HDR5B    0.730000E-01   1.00800           0   0.00000       0.00000    
     11512 IM1      272      IM1      N2       ND2R5B    1.59050       13.6070           0 -0.840000       1.00000    
     11513 IM1      272      IM1      DN2      DRUD     -1.59050      0.400000           0   0.00000       0.00000    
     11514 IM1      272      IM1      H7       DUMH      0.00000       1.00800           0   0.00000       0.00000    
     11515 IM1      272      IM1      LPN21    LPD     -0.474000       0.00000          -1   0.00000       0.00000    
     11516 IM1      273      IM1      C1       CD33G     1.64330       11.6110           0  -1.08100       1.00000    
     11517 IM1      273      IM1      DC1      DRUD     -1.80430      0.400000           0   0.00000       0.00000    
     11518 IM1      273      IM1      H1       HDA3A    0.940000E-01   1.00800           0   0.00000       0.00000    
     11519 IM1      273      IM1      H2       HDA3A    0.940000E-01   1.00800           0   0.00000       0.00000    
     11520 IM1      273      IM1      H3       HDA3A    0.940000E-01   1.00800           0   0.00000       0.00000    
     11521 IM1      273      IM1      N1       ND2R5A    1.92920       13.6070           0  -1.06300       1.30000    
     11522 IM1      273      IM1      DN1      DRUD     -1.78920      0.400000           0   0.00000       0.00000    
     11523 IM1      273      IM1      C2       CD2R5A    1.66810       11.6110           0  -1.37800       1.30000    
     11524 IM1      273      IM1      DC2      DRUD     -2.03710      0.400000           0   0.00000       0.00000    
     11525 IM1      273      IM1      H4       HDR5A    0.150000       1.00800           0   0.00000       0.00000    
     11526 IM1      273      IM1      C3       CD2R5A    2.22510       11.6110           0  -1.37800       1.30000    
     11527 IM1      273      IM1      DC3      DRUD     -2.03710      0.400000           0   0.00000       0.00000    
     11528 IM1      273      IM1      H5       HDR5A    0.530000E-01   1.00800           0   0.00000       0.00000    
     11529 IM1      273      IM1      C4       CD2R5B    1.73480       11.6110           0 -0.868000       1.30000    
     11530 IM1      273      IM1      DC4      DRUD     -1.61680      0.400000           0   0.00000       0.00000    
     11531 IM1      273      IM1      H6       HDR5B    0.730000E-01   1.00800           0   0.00000       0.00000    
     11532 IM1      273      IM1      N2       ND2R5B    1.59050       13.6070           0 -0.840000       1.00000    
     11533 IM1      273      IM1      DN2      DRUD     -1.59050      0.400000           0   0.00000       0.00000    
     11534 IM1      273      IM1      H7       DUMH      0.00000       1.00800           0   0.00000       0.00000    
     11535 IM1      273      IM1      LPN21    LPD     -0.474000       0.00000          -1   0.00000       0.00000    
     11536 IM1      274      IM1      C1       CD33G     1.64330       11.6110           0  -1.08100       1.00000    
     11537 IM1      274      IM1      DC1      DRUD     -1.80430      0.400000           0   0.00000       0.00000    
     11538 IM1      274      IM1      H1       HDA3A    0.940000E-01   1.00800           0   0.00000       0.00000    
     11539 IM1      274      IM1      H2       HDA3A    0.940000E-01   1.00800           0   0.00000       0.00000    
     11540 IM1      274      IM1      H3       HDA3A    0.940000E-01   1.00800           0   0.00000       0.00000    
     11541 IM1      274      IM1      N1       ND2R5A    1.92920       13.6070           0  -1.06300       1.30000    
     11542 IM1      274      IM1      DN1      DRUD     -1.78920      0.400000           0   0.00000       0.00000    
     11543 IM1      274      IM1      C2       CD2R5A    1.66810       11.6110           0  -1.37800       1.30000    
     11544 IM1      274      IM1      DC2      DRUD     -2.03710      0.400000           0   0.00000       0.00000    
     11545 IM1      274      IM1      H4       HDR5A    0.150000       1.00800           0   0.00000       0.00000    
     11546 IM1      274      IM1      C3       CD2R5A    2.22510       11.6110           0  -1.37800       1.30000    
     11547 IM1      274      IM1      DC3      DRUD     -2.03710      0.400000           0   0.00000       0.00000    
     11548 IM1      274      IM1      H5       HDR5A    0.530000E-01   1.00800           0   0.00000       0.00000    
     11549 IM1      274      IM1      C4       CD2R5B    1.73480       11.6110           0 -0.868000       1.30000    
     11550 IM1      274      IM1      DC4      DRUD     -1.61680      0.400000           0   0.00000       0.00000    
     11551 IM1      274      IM1      H6       HDR5B    0.730000E-01   1.00800           0   0.00000       0.00000    
     11552 IM1      274      IM1      N2       ND2R5B    1.59050       13.6070           0 -0.840000       1.00000    
     11553 IM1      274      IM1      DN2      DRUD     -1.59050      0.400000           0   0.00000       0.00000    
     11554 IM1      274      IM1      H7       DUMH      0.00000       1.00800           0   0.00000       0.00000    
     11555 IM1      274      IM1      LPN21    LPD     -0.474000       0.00000          -1   0.00000       0.00000    
     11556 IM1      275      IM1      C1       CD33G     1.64330       11.6110           0  -1.08100       1.00000    
     11557 IM1      275      IM1      DC1      DRUD     -1.80430      0.400000           0   0.00000       0.00000    
     11558 IM1      275      IM1      H1       HDA3A    0.940000E-01   1.00800           0   0.00000       0.00000    
     11559 IM1      275      IM1      H2       HDA3A    0.940000E-01   1.00800           0   0.00000       0.00000    
     11560 IM1      275      IM1      H3       HDA3A    0.940000E-01   1.00800           0   0.00000       0.00000    
     11561 IM1      275      IM1      N1       ND2R5A    1.92920       13.6070           0  -1.06300       1.30000    
     11562 IM1      275      IM1      DN1      DRUD     -1.78920      0.400000           0   0.00000       0.00000    
     11563 IM1      275      IM1      C2       CD2R5A    1.66810       11.6110           0  -1.37800       1.30000    
     11564 IM1      275      IM1      DC2      DRUD     -2.03710      0.400000           0   0.00000       0.00000    
     11565 IM1      275      IM1      H4       HDR5A    0.150000       1.00800           0   0.00000       0.00000    
     11566 IM1      275      IM1      C3       CD2R5A    2.22510       11.6110           0  -1.37800       1.30000    
     11567 IM1      275      IM1      DC3      DRUD     -2.03710      0.400000           0   0.00000       0.00000    
     11568 IM1      275      IM1      H5       HDR5A    0.530000E-01   1.00800           0   0.00000       0.00000    
     11569 IM1      275      IM1      C4       CD2R5B    1.73480       11.6110           0 -0.868000       1.30000    
     11570 IM1      275      IM1      DC4      DRUD     -1.61680      0.400000           0   0.00000       0.00000    
     11571 IM1      275      IM1      H6       HDR5B    0.730000E-01   1.00800           0   0.00000       0.00000    
     11572 IM1      275      IM1      N2       ND2R5B    1.59050       13.6070           0 -0.840000       1.00000    
     11573 IM1      275      IM1      DN2      DRUD     -1.59050      0.400000           0   0.00000       0.00000    
     11574 IM1      275      IM1      H7       DUMH      0.00000       1.00800           0   0.00000       0.00000    
     11575 IM1      275      IM1      LPN21    LPD     -0.474000       0.00000          -1   0.00000       0.00000    
     11576 IM1      276      IM1      C1       CD33G     1.64330       11.6110           0  -1.08100       1.00000    
     11577 IM1      276      IM1      DC1      DRUD     -1.80430      0.400000           0   0.00000       0.00000    
     11578 IM1      276      IM1      H1       HDA3A    0.940000E-01   1.00800           0   0.00000       0.00000    
     11579 IM1      276      IM1      H2       HDA3A    0.940000E-01   1.00800           0   0.00000       0.00000    
     11580 IM1      276      IM1      H3       HDA3A    0.940000E-01   1.00800           0   0.00000       0.00000    
     11581 IM1      276      IM1      N1       ND2R5A    1.92920       13.6070           0  -1.06300       1.30000    
     11582 IM1      276      IM1      DN1      DRUD     -1.78920      0.400000           0   0.00000       0.00000    
     11583 IM1      276      IM1      C2       CD2R5A    1.66810       11.6110           0  -1.37800       1.30000    
     11584 IM1      276      IM1      DC2      DRUD     -2.03710      0.400000           0   0.00000       0.00000    
     11585 IM1      276      IM1      H4       HDR5A    0.150000       1.00800           0   0.00000       0.00000    
     11586 IM1      276      IM1      C3       CD2R5A    2.22510       11.6110           0  -1.37800       1.30000    
     11587 IM1      276      IM1      DC3      DRUD     -2.03710      0.400000           0   0.00000       0.00000    
     11588 IM1      276      IM1      H5       HDR5A    0.530000E-01   1.00800           0   0.00000       0.00000    
     11589 IM1      276      IM1      C4       CD2R5B    1.73480       11.6110           0 -0.868000       1.30000    
     11590 IM1      276      IM1      DC4      DRUD     -1.61680      0.400000           0   0.00000       0.00000    
     11591 IM1      276      IM1      H6       HDR5B    0.730000E-01   1.00800           0   0.00000       0.00000    
     11592 IM1      276      IM1      N2       ND2R5B    1.59050       13.6070           0 -0.840000       1.00000    
     11593 IM1      276      IM1      DN2      DRUD     -1.59050      0.400000           0   0.00000       0.00000    
     11594 IM1      276      IM1      H7       DUMH      0.00000       1.00800           0   0.00000       0.00000    
     11595 IM1      276      IM1      LPN21    LPD     -0.474000       0.00000          -1   0.00000       0.00000    
     11596 IM1      277      IM1      C1       CD33G     1.64330       11.6110           0  -1.08100       1.00000    
     11597 IM1      277      IM1      DC1      DRUD     -1.80430      0.400000           0   0.00000       0.00000    
     11598 IM1      277      IM1      H1       HDA3A    0.940000E-01   1.00800           0   0.00000       0.00000    
     11599 IM1      277      IM1      H2       HDA3A    0.940000E-01   1.00800           0   0.00000       0.00000    
     11600 IM1      277      IM1      H3       HDA3A    0.940000E-01   1.00800           0   0.00000       0.00000    
     11601 IM1      277      IM1      N1       ND2R5A    1.92920       13.6070           0  -1.06300       1.30000    
     11602 IM1      277      IM1      DN1      DRUD     -1.78920      0.400000           0   0.00000       0.00000    
     11603 IM1      277      IM1      C2       CD2R5A    1.66810       11.6110           0  -1.37800       1.30000    
     11604 IM1      277      IM1      DC2      DRUD     -2.03710      0.400000           0   0.00000       0.00000    
     11605 IM1      277      IM1      H4       HDR5A    0.150000       1.00800           0   0.00000       0.00000    
     11606 IM1      277      IM1      C3       CD2R5A    2.22510       11.6110           0  -1.37800       1.30000    
     11607 IM1      277      IM1      DC3      DRUD     -2.03710      0.400000           0   0.00000       0.00000    
     11608 IM1      277      IM1      H5       HDR5A    0.530000E-01   1.00800           0   0.00000       0.00000    
     11609 IM1      277      IM1      C4       CD2R5B    1.73480       11.6110           0 -0.868000       1.30000    
     11610 IM1      277      IM1      DC4      DRUD     -1.61680      0.400000           0   0.00000       0.00000    
     11611 IM1      277      IM1      H6       HDR5B    0.730000E-01   1.00800           0   0.00000       0.00000    
     11612 IM1      277      IM1      N2       ND2R5B    1.59050       13.6070           0 -0.840000       1.00000    
     11613 IM1      277      IM1      DN2      DRUD     -1.59050      0.400000           0   0.00000       0.00000    
     11614 IM1      277      IM1      H7       DUMH      0.00000       1.00800           0   0.00000       0.00000    
     11615 IM1      277      IM1      LPN21    LPD     -0.474000       0.00000          -1   0.00000       0.00000    
     11616 IM1      278      IM1      C1       CD33G     1.64330       11.6110           0  -1.08100       1.00000    
     11617 IM1      278      IM1      DC1      DRUD     -1.80430      0.400000           0   0.00000       0.00000    
     11618 IM1      278      IM1      H1       HDA3A    0.940000E-01   1.00800           0   0.00000       0.00000    
     11619 IM1      278      IM1      H2       HDA3A    0.940000E-01   1.00800           0   0.00000       0.00000    
     11620 IM1      278      IM1      H3       HDA3A    0.940000E-01   1.00800           0   0.00000       0.00000    
     11621 IM1      278      IM1      N1       ND2R5A    1.92920       13.6070           0  -1.06300       1.30000    
     11622 IM1      278      IM1      DN1      DRUD     -1.78920      0.400000           0   0.00000       0.00000    
     11623 IM1      278      IM1      C2       CD2R5A    1.66810       11.6110           0  -1.37800       1.30000    
     11624 IM1      278      IM1      DC2      DRUD     -2.03710      0.400000           0   0.00000       0.00000    
     11625 IM1      278      IM1      H4       HDR5A    0.150000       1.00800           0   0.00000       0.00000    
     11626 IM1      278      IM1      C3       CD2R5A    2.22510       11.6110           0  -1.37800       1.30000    
     11627 IM1      278      IM1      DC3      DRUD     -2.03710      0.400000           0   0.00000       0.00000    
     11628 IM1      278      IM1      H5       HDR5A    0.530000E-01   1.00800           0   0.00000       0.00000    
     11629 IM1      278      IM1      C4       CD2R5B    1.73480       11.6110           0 -0.868000       1.30000    
     11630 IM1      278      IM1      DC4      DRUD     -1.61680      0.400000           0   0.00000       0.00000    
     11631 IM1      278      IM1      H6       HDR5B    0.730000E-01   1.00800           0   0.00000       0.00000    
     11632 IM1      278      IM1      N2       ND2R5B    1.59050       13.6070           0 -0.840000       1.00000    
     11633 IM1      278      IM1      DN2      DRUD     -1.59050      0.400000           0   0.00000       0.00000    
     11634 IM1      278      IM1      H7       DUMH      0.00000       1.00800           0   0.00000       0.00000    
     11635 IM1      278      IM1      LPN21    LPD     -0.474000       0.00000          -1   0.00000       0.00000    
     11636 IM1      279      IM1      C1       CD33G     1.64330       11.6110           0  -1.08100       1.00000    
     11637 IM1      279      IM1      DC1      DRUD     -1.80430      0.400000           0   0.00000       0.00000    
     11638 IM1      279      IM1      H1       HDA3A    0.940000E-01   1.00800           0   0.00000       0.00000    
     11639 IM1      279      IM1      H2       HDA3A    0.940000E-01   1.00800           0   0.00000       0.00000    
     11640 IM1      279      IM1      H3       HDA3A    0.940000E-01   1.00800           0   0.00000       0.00000    
     11641 IM1      279      IM1      N1       ND2R5A    1.92920       13.6070           0  -1.06300       1.30000    
     11642 IM1      279      IM1      DN1      DRUD     -1.78920      0.400000           0   0.00000       0.00000    
     11643 IM1      279      IM1      C2       CD2R5A    1.66810       11.6110           0  -1.37800       1.30000    
     11644 IM1      279      IM1      DC2      DRUD     -2.03710      0.400000           0   0.00000       0.00000    
     11645 IM1      279      IM1      H4       HDR5A    0.150000       1.00800           0   0.00000       0.00000    
     11646 IM1      279      IM1      C3       CD2R5A    2.22510       11.6110           0  -1.37800       1.30000    
     11647 IM1      279      IM1      DC3      DRUD     -2.03710      0.400000           0   0.00000       0.00000    
     11648 IM1      279      IM1      H5       HDR5A    0.530000E-01   1.00800           0   0.00000       0.00000    
     11649 IM1      279      IM1      C4       CD2R5B    1.73480       11.6110           0 -0.868000       1.30000    
     11650 IM1      279      IM1      DC4      DRUD     -1.61680      0.400000           0   0.00000       0.00000    
     11651 IM1      279      IM1      H6       HDR5B    0.730000E-01   1.00800           0   0.00000       0.00000    
     11652 IM1      279      IM1      N2       ND2R5B    1.59050       13.6070           0 -0.840000       1.00000    
     11653 IM1      279      IM1      DN2      DRUD     -1.59050      0.400000           0   0.00000       0.00000    
     11654 IM1      279      IM1      H7       DUMH      0.00000       1.00800           0   0.00000       0.00000    
     11655 IM1      279      IM1      LPN21    LPD     -0.474000       0.00000          -1   0.00000       0.00000    
     11656 IM1      280      IM1      C1       CD33G     1.64330       11.6110           0  -1.08100       1.00000    
     11657 IM1      280      IM1      DC1      DRUD     -1.80430      0.400000           0   0.00000       0.00000    
     11658 IM1      280      IM1      H1       HDA3A    0.940000E-01   1.00800           0   0.00000       0.00000    
     11659 IM1      280      IM1      H2       HDA3A    0.940000E-01   1.00800           0   0.00000       0.00000    
     11660 IM1      280      IM1      H3       HDA3A    0.940000E-01   1.00800           0   0.00000       0.00000    
     11661 IM1      280      IM1      N1       ND2R5A    1.92920       13.6070           0  -1.06300       1.30000    
     11662 IM1      280      IM1      DN1      DRUD     -1.78920      0.400000           0   0.00000       0.00000    
     11663 IM1      280      IM1      C2       CD2R5A    1.66810       11.6110           0  -1.37800       1.30000    
     11664 IM1      280      IM1      DC2      DRUD     -2.03710      0.400000           0   0.00000       0.00000    
     11665 IM1      280      IM1      H4       HDR5A    0.150000       1.00800           0   0.00000       0.00000    
     11666 IM1      280      IM1      C3       CD2R5A    2.22510       11.6110           0  -1.37800       1.30000    
     11667 IM1      280      IM1      DC3      DRUD     -2.03710      0.400000           0   0.00000       0.00000    
     11668 IM1      280      IM1      H5       HDR5A    0.530000E-01   1.00800           0   0.00000       0.00000    
     11669 IM1      280      IM1      C4       CD2R5B    1.73480       11.6110           0 -0.868000       1.30000    
     11670 IM1      280      IM1      DC4      DRUD     -1.61680      0.400000           0   0.00000       0.00000    
     11671 IM1      280      IM1      H6       HDR5B    0.730000E-01   1.00800           0   0.00000       0.00000    
     11672 IM1      280      IM1      N2       ND2R5B    1.59050       13.6070           0 -0.840000       1.00000    
     11673 IM1      280      IM1      DN2      DRUD     -1.59050      0.400000           0   0.00000       0.00000    
     11674 IM1      280      IM1      H7       DUMH      0.00000       1.00800           0   0.00000       0.00000    
     11675 IM1      280      IM1      LPN21    LPD     -0.474000       0.00000          -1   0.00000       0.00000    
     11676 IM1      281      IM1      C1       CD33G     1.64330       11.6110           0  -1.08100       1.00000    
     11677 IM1      281      IM1      DC1      DRUD     -1.80430      0.400000           0   0.00000       0.00000    
     11678 IM1      281      IM1      H1       HDA3A    0.940000E-01   1.00800           0   0.00000       0.00000    
     11679 IM1      281      IM1      H2       HDA3A    0.940000E-01   1.00800           0   0.00000       0.00000    
     11680 IM1      281      IM1      H3       HDA3A    0.940000E-01   1.00800           0   0.00000       0.00000    
     11681 IM1      281      IM1      N1       ND2R5A    1.92920       13.6070           0  -1.06300       1.30000    
     11682 IM1      281      IM1      DN1      DRUD     -1.78920      0.400000           0   0.00000       0.00000    
     11683 IM1      281      IM1      C2       CD2R5A    1.66810       11.6110           0  -1.37800       1.30000    
     11684 IM1      281      IM1      DC2      DRUD     -2.03710      0.400000           0   0.00000       0.00000    
     11685 IM1      281      IM1      H4       HDR5A    0.150000       1.00800           0   0.00000       0.00000    
     11686 IM1      281      IM1      C3       CD2R5A    2.22510       11.6110           0  -1.37800       1.30000    
     11687 IM1      281      IM1      DC3      DRUD     -2.03710      0.400000           0   0.00000       0.00000    
     11688 IM1      281      IM1      H5       HDR5A    0.530000E-01   1.00800           0   0.00000       0.00000    
     11689 IM1      281      IM1      C4       CD2R5B    1.73480       11.6110           0 -0.868000       1.30000    
     11690 IM1      281      IM1      DC4      DRUD     -1.61680      0.400000           0   0.00000       0.00000    
     11691 IM1      281      IM1      H6       HDR5B    0.730000E-01   1.00800           0   0.00000       0.00000    
     11692 IM1      281      IM1      N2       ND2R5B    1.59050       13.6070           0 -0.840000       1.00000    
     11693 IM1      281      IM1      DN2      DRUD     -1.59050      0.400000           0   0.00000       0.00000    
     11694 IM1      281      IM1      H7       DUMH      0.00000       1.00800           0   0.00000       0.00000    
     11695 IM1      281      IM1      LPN21    LPD     -0.474000       0.00000          -1   0.00000       0.00000    
     11696 IM1      282      IM1      C1       CD33G     1.64330       11.6110           0  -1.08100       1.00000    
     11697 IM1      282      IM1      DC1      DRUD     -1.80430      0.400000           0   0.00000       0.00000    
     11698 IM1      282      IM1      H1       HDA3A    0.940000E-01   1.00800           0   0.00000       0.00000    
     11699 IM1      282      IM1      H2       HDA3A    0.940000E-01   1.00800           0   0.00000       0.00000    
     11700 IM1      282      IM1      H3       HDA3A    0.940000E-01   1.00800           0   0.00000       0.00000    
     11701 IM1      282      IM1      N1       ND2R5A    1.92920       13.6070           0  -1.06300       1.30000    
     11702 IM1      282      IM1      DN1      DRUD     -1.78920      0.400000           0   0.00000       0.00000    
     11703 IM1      282      IM1      C2       CD2R5A    1.66810       11.6110           0  -1.37800       1.30000    
     11704 IM1      282      IM1      DC2      DRUD     -2.03710      0.400000           0   0.00000       0.00000    
     11705 IM1      282      IM1      H4       HDR5A    0.150000       1.00800           0   0.00000       0.00000    
     11706 IM1      282      IM1      C3       CD2R5A    2.22510       11.6110           0  -1.37800       1.30000    
     11707 IM1      282      IM1      DC3      DRUD     -2.03710      0.400000           0   0.00000       0.00000    
     11708 IM1      282      IM1      H5       HDR5A    0.530000E-01   1.00800           0   0.00000       0.00000    
     11709 IM1      282      IM1      C4       CD2R5B    1.73480       11.6110           0 -0.868000       1.30000    
     11710 IM1      282      IM1      DC4      DRUD     -1.61680      0.400000           0   0.00000       0.00000    
     11711 IM1      282      IM1      H6       HDR5B    0.730000E-01   1.00800           0   0.00000       0.00000    
     11712 IM1      282      IM1      N2       ND2R5B    1.59050       13.6070           0 -0.840000       1.00000    
     11713 IM1      282      IM1      DN2      DRUD     -1.59050      0.400000           0   0.00000       0.00000    
     11714 IM1      282      IM1      H7       DUMH      0.00000       1.00800           0   0.00000       0.00000    
     11715 IM1      282      IM1      LPN21    LPD     -0.474000       0.00000          -1   0.00000       0.00000    
     11716 IM1      283      IM1      C1       CD33G     1.64330       11.6110           0  -1.08100       1.00000    
     11717 IM1      283      IM1      DC1      DRUD     -1.80430      0.400000           0   0.00000       0.00000    
     11718 IM1      283      IM1      H1       HDA3A    0.940000E-01   1.00800           0   0.00000       0.00000    
     11719 IM1      283      IM1      H2       HDA3A    0.940000E-01   1.00800           0   0.00000       0.00000    
     11720 IM1      283      IM1      H3       HDA3A    0.940000E-01   1.00800           0   0.00000       0.00000    
     11721 IM1      283      IM1      N1       ND2R5A    1.92920       13.6070           0  -1.06300       1.30000    
     11722 IM1      283      IM1      DN1      DRUD     -1.78920      0.400000           0   0.00000       0.00000    
     11723 IM1      283      IM1      C2       CD2R5A    1.66810       11.6110           0  -1.37800       1.30000    
     11724 IM1      283      IM1      DC2      DRUD     -2.03710      0.400000           0   0.00000       0.00000    
     11725 IM1      283      IM1      H4       HDR5A    0.150000       1.00800           0   0.00000       0.00000    
     11726 IM1      283      IM1      C3       CD2R5A    2.22510       11.6110           0  -1.37800       1.30000    
     11727 IM1      283      IM1      DC3      DRUD     -2.03710      0.400000           0   0.00000       0.00000    
     11728 IM1      283      IM1      H5       HDR5A    0.530000E-01   1.00800           0   0.00000       0.00000    
     11729 IM1      283      IM1      C4       CD2R5B    1.73480       11.6110           0 -0.868000       1.30000    
     11730 IM1      283      IM1      DC4      DRUD     -1.61680      0.400000           0   0.00000       0.00000    
     11731 IM1      283      IM1      H6       HDR5B    0.730000E-01   1.00800           0   0.00000       0.00000    
     11732 IM1      283      IM1      N2       ND2R5B    1.59050       13.6070           0 -0.840000       1.00000    
     11733 IM1      283      IM1      DN2      DRUD     -1.59050      0.400000           0   0.00000       0.00000    
     11734 IM1      283      IM1      H7       DUMH      0.00000       1.00800           0   0.00000       0.00000    
     11735 IM1      283      IM1      LPN21    LPD     -0.474000       0.00000          -1   0.00000       0.00000    
     11736 IM1      284      IM1      C1       CD33G     1.64330       11.6110           0  -1.08100       1.00000    
     11737 IM1      284      IM1      DC1      DRUD     -1.80430      0.400000           0   0.00000       0.00000    
     11738 IM1      284      IM1      H1       HDA3A    0.940000E-01   1.00800           0   0.00000       0.00000    
     11739 IM1      284      IM1      H2       HDA3A    0.940000E-01   1.00800           0   0.00000       0.00000    
     11740 IM1      284      IM1      H3       HDA3A    0.940000E-01   1.00800           0   0.00000       0.00000    
     11741 IM1      284      IM1      N1       ND2R5A    1.92920       13.6070           0  -1.06300       1.30000    
     11742 IM1      284      IM1      DN1      DRUD     -1.78920      0.400000           0   0.00000       0.00000    
     11743 IM1      284      IM1      C2       CD2R5A    1.66810       11.6110           0  -1.37800       1.30000    
     11744 IM1      284      IM1      DC2      DRUD     -2.03710      0.400000           0   0.00000       0.00000    
     11745 IM1      284      IM1      H4       HDR5A    0.150000       1.00800           0   0.00000       0.00000    
     11746 IM1      284      IM1      C3       CD2R5A    2.22510       11.6110           0  -1.37800       1.30000    
     11747 IM1      284      IM1      DC3      DRUD     -2.03710      0.400000           0   0.00000       0.00000    
     11748 IM1      284      IM1      H5       HDR5A    0.530000E-01   1.00800           0   0.00000       0.00000    
     11749 IM1      284      IM1      C4       CD2R5B    1.73480       11.6110           0 -0.868000       1.30000    
     11750 IM1      284      IM1      DC4      DRUD     -1.61680      0.400000           0   0.00000       0.00000    
     11751 IM1      284      IM1      H6       HDR5B    0.730000E-01   1.00800           0   0.00000       0.00000    
     11752 IM1      284      IM1      N2       ND2R5B    1.59050       13.6070           0 -0.840000       1.00000    
     11753 IM1      284      IM1      DN2      DRUD     -1.59050      0.400000           0   0.00000       0.00000    
     11754 IM1      284      IM1      H7       DUMH      0.00000       1.00800           0   0.00000       0.00000    
     11755 IM1      284      IM1      LPN21    LPD     -0.474000       0.00000          -1   0.00000       0.00000    
     11756 IM1      285      IM1      C1       CD33G     1.64330       11.6110           0  -1.08100       1.00000    
     11757 IM1      285      IM1      DC1      DRUD     -1.80430      0.400000           0   0.00000       0.00000    
     11758 IM1      285      IM1      H1       HDA3A    0.940000E-01   1.00800           0   0.00000       0.00000    
     11759 IM1      285      IM1      H2       HDA3A    0.940000E-01   1.00800           0   0.00000       0.00000    
     11760 IM1      285      IM1      H3       HDA3A    0.940000E-01   1.00800           0   0.00000       0.00000    
     11761 IM1      285      IM1      N1       ND2R5A    1.92920       13.6070           0  -1.06300       1.30000    
     11762 IM1      285      IM1      DN1      DRUD     -1.78920      0.400000           0   0.00000       0.00000    
     11763 IM1      285      IM1      C2       CD2R5A    1.66810       11.6110           0  -1.37800       1.30000    
     11764 IM1      285      IM1      DC2      DRUD     -2.03710      0.400000           0   0.00000       0.00000    
     11765 IM1      285      IM1      H4       HDR5A    0.150000       1.00800           0   0.00000       0.00000    
     11766 IM1      285      IM1      C3       CD2R5A    2.22510       11.6110           0  -1.37800       1.30000    
     11767 IM1      285      IM1      DC3      DRUD     -2.03710      0.400000           0   0.00000       0.00000    
     11768 IM1      285      IM1      H5       HDR5A    0.530000E-01   1.00800           0   0.00000       0.00000    
     11769 IM1      285      IM1      C4       CD2R5B    1.73480       11.6110           0 -0.868000       1.30000    
     11770 IM1      285      IM1      DC4      DRUD     -1.61680      0.400000           0   0.00000       0.00000    
     11771 IM1      285      IM1      H6       HDR5B    0.730000E-01   1.00800           0   0.00000       0.00000    
     11772 IM1      285      IM1      N2       ND2R5B    1.59050       13.6070           0 -0.840000       1.00000    
     11773 IM1      285      IM1      DN2      DRUD     -1.59050      0.400000           0   0.00000       0.00000    
     11774 IM1      285      IM1      H7       DUMH      0.00000       1.00800           0   0.00000       0.00000    
     11775 IM1      285      IM1      LPN21    LPD     -0.474000       0.00000          -1   0.00000       0.00000    
     11776 IM1      286      IM1      C1       CD33G     1.64330       11.6110           0  -1.08100       1.00000    
     11777 IM1      286      IM1      DC1      DRUD     -1.80430      0.400000           0   0.00000       0.00000    
     11778 IM1      286      IM1      H1       HDA3A    0.940000E-01   1.00800           0   0.00000       0.00000    
     11779 IM1      286      IM1      H2       HDA3A    0.940000E-01   1.00800           0   0.00000       0.00000    
     11780 IM1      286      IM1      H3       HDA3A    0.940000E-01   1.00800           0   0.00000       0.00000    
     11781 IM1      286      IM1      N1       ND2R5A    1.92920       13.6070           0  -1.06300       1.30000    
     11782 IM1      286      IM1      DN1      DRUD     -1.78920      0.400000           0   0.00000       0.00000    
     11783 IM1      286      IM1      C2       CD2R5A    1.66810       11.6110           0  -1.37800       1.30000    
     11784 IM1      286      IM1      DC2      DRUD     -2.03710      0.400000           0   0.00000       0.00000    
     11785 IM1      286      IM1      H4       HDR5A    0.150000       1.00800           0   0.00000       0.00000    
     11786 IM1      286      IM1      C3       CD2R5A    2.22510       11.6110           0  -1.37800       1.30000    
     11787 IM1      286      IM1      DC3      DRUD     -2.03710      0.400000           0   0.00000       0.00000    
     11788 IM1      286      IM1      H5       HDR5A    0.530000E-01   1.00800           0   0.00000       0.00000    
     11789 IM1      286      IM1      C4       CD2R5B    1.73480       11.6110           0 -0.868000       1.30000    
     11790 IM1      286      IM1      DC4      DRUD     -1.61680      0.400000           0   0.00000       0.00000    
     11791 IM1      286      IM1      H6       HDR5B    0.730000E-01   1.00800           0   0.00000       0.00000    
     11792 IM1      286      IM1      N2       ND2R5B    1.59050       13.6070           0 -0.840000       1.00000    
     11793 IM1      286      IM1      DN2      DRUD     -1.59050      0.400000           0   0.00000       0.00000    
     11794 IM1      286      IM1      H7       DUMH      0.00000       1.00800           0   0.00000       0.00000    
     11795 IM1      286      IM1      LPN21    LPD     -0.474000       0.00000          -1   0.00000       0.00000    
     11796 IM1      287      IM1      C1       CD33G     1.64330       11.6110           0  -1.08100       1.00000    
     11797 IM1      287      IM1      DC1      DRUD     -1.80430      0.400000           0   0.00000       0.00000    
     11798 IM1      287      IM1      H1       HDA3A    0.940000E-01   1.00800           0   0.00000       0.00000    
     11799 IM1      287      IM1      H2       HDA3A    0.940000E-01   1.00800           0   0.00000       0.00000    
     11800 IM1      287      IM1      H3       HDA3A    0.940000E-01   1.00800           0   0.00000       0.00000    
     11801 IM1      287      IM1      N1       ND2R5A    1.92920       13.6070           0  -1.06300       1.30000    
     11802 IM1      287      IM1      DN1      DRUD     -1.78920      0.400000           0   0.00000       0.00000    
     11803 IM1      287      IM1      C2       CD2R5A    1.66810       11.6110           0  -1.37800       1.30000    
     11804 IM1      287      IM1      DC2      DRUD     -2.03710      0.400000           0   0.00000       0.00000    
     11805 IM1      287      IM1      H4       HDR5A    0.150000       1.00800           0   0.00000       0.00000    
     11806 IM1      287      IM1      C3       CD2R5A    2.22510       11.6110           0  -1.37800       1.30000    
     11807 IM1      287      IM1      DC3      DRUD     -2.03710      0.400000           0   0.00000       0.00000    
     11808 IM1      287      IM1      H5       HDR5A    0.530000E-01   1.00800           0   0.00000       0.00000    
     11809 IM1      287      IM1      C4       CD2R5B    1.73480       11.6110           0 -0.868000       1.30000    
     11810 IM1      287      IM1      DC4      DRUD     -1.61680      0.400000           0   0.00000       0.00000    
     11811 IM1      287      IM1      H6       HDR5B    0.730000E-01   1.00800           0   0.00000       0.00000    
     11812 IM1      287      IM1      N2       ND2R5B    1.59050       13.6070           0 -0.840000       1.00000    
     11813 IM1      287      IM1      DN2      DRUD     -1.59050      0.400000           0   0.00000       0.00000    
     11814 IM1      287      IM1      H7       DUMH      0.00000       1.00800           0   0.00000       0.00000    
     11815 IM1      287      IM1      LPN21    LPD     -0.474000       0.00000          -1   0.00000       0.00000    
     11816 IM1      288      IM1      C1       CD33G     1.64330       11.6110           0  -1.08100       1.00000    
     11817 IM1      288      IM1      DC1      DRUD     -1.80430      0.400000           0   0.00000       0.00000    
     11818 IM1      288      IM1      H1       HDA3A    0.940000E-01   1.00800           0   0.00000       0.00000    
     11819 IM1      288      IM1      H2       HDA3A    0.940000E-01   1.00800           0   0.00000       0.00000    
     11820 IM1      288      IM1      H3       HDA3A    0.940000E-01   1.00800           0   0.00000       0.00000    
     11821 IM1      288      IM1      N1       ND2R5A    1.92920       13.6070           0  -1.06300       1.30000    
     11822 IM1      288      IM1      DN1      DRUD     -1.78920      0.400000           0   0.00000       0.00000    
     11823 IM1      288      IM1      C2       CD2R5A    1.66810       11.6110           0  -1.37800       1.30000    
     11824 IM1      288      IM1      DC2      DRUD     -2.03710      0.400000           0   0.00000       0.00000    
     11825 IM1      288      IM1      H4       HDR5A    0.150000       1.00800           0   0.00000       0.00000    
     11826 IM1      288      IM1      C3       CD2R5A    2.22510       11.6110           0  -1.37800       1.30000    
     11827 IM1      288      IM1      DC3      DRUD     -2.03710      0.400000           0   0.00000       0.00000    
     11828 IM1      288      IM1      H5       HDR5A    0.530000E-01   1.00800           0   0.00000       0.00000    
     11829 IM1      288      IM1      C4       CD2R5B    1.73480       11.6110           0 -0.868000       1.30000    
     11830 IM1      288      IM1      DC4      DRUD     -1.61680      0.400000           0   0.00000       0.00000    
     11831 IM1      288      IM1      H6       HDR5B    0.730000E-01   1.00800           0   0.00000       0.00000    
     11832 IM1      288      IM1      N2       ND2R5B    1.59050       13.6070           0 -0.840000       1.00000    
     11833 IM1      288      IM1      DN2      DRUD     -1.59050      0.400000           0   0.00000       0.00000    
     11834 IM1      288      IM1      H7       DUMH      0.00000       1.00800           0   0.00000       0.00000    
     11835 IM1      288      IM1      LPN21    LPD     -0.474000       0.00000          -1   0.00000       0.00000    
     11836 IM1      289      IM1      C1       CD33G     1.64330       11.6110           0  -1.08100       1.00000    
     11837 IM1      289      IM1      DC1      DRUD     -1.80430      0.400000           0   0.00000       0.00000    
     11838 IM1      289      IM1      H1       HDA3A    0.940000E-01   1.00800           0   0.00000       0.00000    
     11839 IM1      289      IM1      H2       HDA3A    0.940000E-01   1.00800           0   0.00000       0.00000    
     11840 IM1      289      IM1      H3       HDA3A    0.940000E-01   1.00800           0   0.00000       0.00000    
     11841 IM1      289      IM1      N1       ND2R5A    1.92920       13.6070           0  -1.06300       1.30000    
     11842 IM1      289      IM1      DN1      DRUD     -1.78920      0.400000           0   0.00000       0.00000    
     11843 IM1      289      IM1      C2       CD2R5A    1.66810       11.6110           0  -1.37800       1.30000    
     11844 IM1      289      IM1      DC2      DRUD     -2.03710      0.400000           0   0.00000       0.00000    
     11845 IM1      289      IM1      H4       HDR5A    0.150000       1.00800           0   0.00000       0.00000    
     11846 IM1      289      IM1      C3       CD2R5A    2.22510       11.6110           0  -1.37800       1.30000    
     11847 IM1      289      IM1      DC3      DRUD     -2.03710      0.400000           0   0.00000       0.00000    
     11848 IM1      289      IM1      H5       HDR5A    0.530000E-01   1.00800           0   0.00000       0.00000    
     11849 IM1      289      IM1      C4       CD2R5B    1.73480       11.6110           0 -0.868000       1.30000    
     11850 IM1      289      IM1      DC4      DRUD     -1.61680      0.400000           0   0.00000       0.00000    
     11851 IM1      289      IM1      H6       HDR5B    0.730000E-01   1.00800           0   0.00000       0.00000    
     11852 IM1      289      IM1      N2       ND2R5B    1.59050       13.6070           0 -0.840000       1.00000    
     11853 IM1      289      IM1      DN2      DRUD     -1.59050      0.400000           0   0.00000       0.00000    
     11854 IM1      289      IM1      H7       DUMH      0.00000       1.00800           0   0.00000       0.00000    
     11855 IM1      289      IM1      LPN21    LPD     -0.474000       0.00000          -1   0.00000       0.00000    
     11856 IM1      290      IM1      C1       CD33G     1.64330       11.6110           0  -1.08100       1.00000    
     11857 IM1      290      IM1      DC1      DRUD     -1.80430      0.400000           0   0.00000       0.00000    
     11858 IM1      290      IM1      H1       HDA3A    0.940000E-01   1.00800           0   0.00000       0.00000    
     11859 IM1      290      IM1      H2       HDA3A    0.940000E-01   1.00800           0   0.00000       0.00000    
     11860 IM1      290      IM1      H3       HDA3A    0.940000E-01   1.00800           0   0.00000       0.00000    
     11861 IM1      290      IM1      N1       ND2R5A    1.92920       13.6070           0  -1.06300       1.30000    
     11862 IM1      290      IM1      DN1      DRUD     -1.78920      0.400000           0   0.00000       0.00000    
     11863 IM1      290      IM1      C2       CD2R5A    1.66810       11.6110           0  -1.37800       1.30000    
     11864 IM1      290      IM1      DC2      DRUD     -2.03710      0.400000           0   0.00000       0.00000    
     11865 IM1      290      IM1      H4       HDR5A    0.150000       1.00800           0   0.00000       0.00000    
     11866 IM1      290      IM1      C3       CD2R5A    2.22510       11.6110           0  -1.37800       1.30000    
     11867 IM1      290      IM1      DC3      DRUD     -2.03710      0.400000           0   0.00000       0.00000    
     11868 IM1      290      IM1      H5       HDR5A    0.530000E-01   1.00800           0   0.00000       0.00000    
     11869 IM1      290      IM1      C4       CD2R5B    1.73480       11.6110           0 -0.868000       1.30000    
     11870 IM1      290      IM1      DC4      DRUD     -1.61680      0.400000           0   0.00000       0.00000    
     11871 IM1      290      IM1      H6       HDR5B    0.730000E-01   1.00800           0   0.00000       0.00000    
     11872 IM1      290      IM1      N2       ND2R5B    1.59050       13.6070           0 -0.840000       1.00000    
     11873 IM1      290      IM1      DN2      DRUD     -1.59050      0.400000           0   0.00000       0.00000    
     11874 IM1      290      IM1      H7       DUMH      0.00000       1.00800           0   0.00000       0.00000    
     11875 IM1      290      IM1      LPN21    LPD     -0.474000       0.00000          -1   0.00000       0.00000    
     11876 IM1      291      IM1      C1       CD33G     1.64330       11.6110           0  -1.08100       1.00000    
     11877 IM1      291      IM1      DC1      DRUD     -1.80430      0.400000           0   0.00000       0.00000    
     11878 IM1      291      IM1      H1       HDA3A    0.940000E-01   1.00800           0   0.00000       0.00000    
     11879 IM1      291      IM1      H2       HDA3A    0.940000E-01   1.00800           0   0.00000       0.00000    
     11880 IM1      291      IM1      H3       HDA3A    0.940000E-01   1.00800           0   0.00000       0.00000    
     11881 IM1      291      IM1      N1       ND2R5A    1.92920       13.6070           0  -1.06300       1.30000    
     11882 IM1      291      IM1      DN1      DRUD     -1.78920      0.400000           0   0.00000       0.00000    
     11883 IM1      291      IM1      C2       CD2R5A    1.66810       11.6110           0  -1.37800       1.30000    
     11884 IM1      291      IM1      DC2      DRUD     -2.03710      0.400000           0   0.00000       0.00000    
     11885 IM1      291      IM1      H4       HDR5A    0.150000       1.00800           0   0.00000       0.00000    
     11886 IM1      291      IM1      C3       CD2R5A    2.22510       11.6110           0  -1.37800       1.30000    
     11887 IM1      291      IM1      DC3      DRUD     -2.03710      0.400000           0   0.00000       0.00000    
     11888 IM1      291      IM1      H5       HDR5A    0.530000E-01   1.00800           0   0.00000       0.00000    
     11889 IM1      291      IM1      C4       CD2R5B    1.73480       11.6110           0 -0.868000       1.30000    
     11890 IM1      291      IM1      DC4      DRUD     -1.61680      0.400000           0   0.00000       0.00000    
     11891 IM1      291      IM1      H6       HDR5B    0.730000E-01   1.00800           0   0.00000       0.00000    
     11892 IM1      291      IM1      N2       ND2R5B    1.59050       13.6070           0 -0.840000       1.00000    
     11893 IM1      291      IM1      DN2      DRUD     -1.59050      0.400000           0   0.00000       0.00000    
     11894 IM1      291      IM1      H7       DUMH      0.00000       1.00800           0   0.00000       0.00000    
     11895 IM1      291      IM1      LPN21    LPD     -0.474000       0.00000          -1   0.00000       0.00000    
     11896 IM1      292      IM1      C1       CD33G     1.64330       11.6110           0  -1.08100       1.00000    
     11897 IM1      292      IM1      DC1      DRUD     -1.80430      0.400000           0   0.00000       0.00000    
     11898 IM1      292      IM1      H1       HDA3A    0.940000E-01   1.00800           0   0.00000       0.00000    
     11899 IM1      292      IM1      H2       HDA3A    0.940000E-01   1.00800           0   0.00000       0.00000    
     11900 IM1      292      IM1      H3       HDA3A    0.940000E-01   1.00800           0   0.00000       0.00000    
     11901 IM1      292      IM1      N1       ND2R5A    1.92920       13.6070           0  -1.06300       1.30000    
     11902 IM1      292      IM1      DN1      DRUD     -1.78920      0.400000           0   0.00000       0.00000    
     11903 IM1      292      IM1      C2       CD2R5A    1.66810       11.6110           0  -1.37800       1.30000    
     11904 IM1      292      IM1      DC2      DRUD     -2.03710      0.400000           0   0.00000       0.00000    
     11905 IM1      292      IM1      H4       HDR5A    0.150000       1.00800           0   0.00000       0.00000    
     11906 IM1      292      IM1      C3       CD2R5A    2.22510       11.6110           0  -1.37800       1.30000    
     11907 IM1      292      IM1      DC3      DRUD     -2.03710      0.400000           0   0.00000       0.00000    
     11908 IM1      292      IM1      H5       HDR5A    0.530000E-01   1.00800           0   0.00000       0.00000    
     11909 IM1      292      IM1      C4       CD2R5B    1.73480       11.6110           0 -0.868000       1.30000    
     11910 IM1      292      IM1      DC4      DRUD     -1.61680      0.400000           0   0.00000       0.00000    
     11911 IM1      292      IM1      H6       HDR5B    0.730000E-01   1.00800           0   0.00000       0.00000    
     11912 IM1      292      IM1      N2       ND2R5B    1.59050       13.6070           0 -0.840000       1.00000    
     11913 IM1      292      IM1      DN2      DRUD     -1.59050      0.400000           0   0.00000       0.00000    
     11914 IM1      292      IM1      H7       DUMH      0.00000       1.00800           0   0.00000       0.00000    
     11915 IM1      292      IM1      LPN21    LPD     -0.474000       0.00000          -1   0.00000       0.00000    
     11916 IM1      293      IM1      C1       CD33G     1.64330       11.6110           0  -1.08100       1.00000    
     11917 IM1      293      IM1      DC1      DRUD     -1.80430      0.400000           0   0.00000       0.00000    
     11918 IM1      293      IM1      H1       HDA3A    0.940000E-01   1.00800           0   0.00000       0.00000    
     11919 IM1      293      IM1      H2       HDA3A    0.940000E-01   1.00800           0   0.00000       0.00000    
     11920 IM1      293      IM1      H3       HDA3A    0.940000E-01   1.00800           0   0.00000       0.00000    
     11921 IM1      293      IM1      N1       ND2R5A    1.92920       13.6070           0  -1.06300       1.30000    
     11922 IM1      293      IM1      DN1      DRUD     -1.78920      0.400000           0   0.00000       0.00000    
     11923 IM1      293      IM1      C2       CD2R5A    1.66810       11.6110           0  -1.37800       1.30000    
     11924 IM1      293      IM1      DC2      DRUD     -2.03710      0.400000           0   0.00000       0.00000    
     11925 IM1      293      IM1      H4       HDR5A    0.150000       1.00800           0   0.00000       0.00000    
     11926 IM1      293      IM1      C3       CD2R5A    2.22510       11.6110           0  -1.37800       1.30000    
     11927 IM1      293      IM1      DC3      DRUD     -2.03710      0.400000           0   0.00000       0.00000    
     11928 IM1      293      IM1      H5       HDR5A    0.530000E-01   1.00800           0   0.00000       0.00000    
     11929 IM1      293      IM1      C4       CD2R5B    1.73480       11.6110           0 -0.868000       1.30000    
     11930 IM1      293      IM1      DC4      DRUD     -1.61680      0.400000           0   0.00000       0.00000    
     11931 IM1      293      IM1      H6       HDR5B    0.730000E-01   1.00800           0   0.00000       0.00000    
     11932 IM1      293      IM1      N2       ND2R5B    1.59050       13.6070           0 -0.840000       1.00000    
     11933 IM1      293      IM1      DN2      DRUD     -1.59050      0.400000           0   0.00000       0.00000    
     11934 IM1      293      IM1      H7       DUMH      0.00000       1.00800           0   0.00000       0.00000    
     11935 IM1      293      IM1      LPN21    LPD     -0.474000       0.00000          -1   0.00000       0.00000    
     11936 IM1      294      IM1      C1       CD33G     1.64330       11.6110           0  -1.08100       1.00000    
     11937 IM1      294      IM1      DC1      DRUD     -1.80430      0.400000           0   0.00000       0.00000    
     11938 IM1      294      IM1      H1       HDA3A    0.940000E-01   1.00800           0   0.00000       0.00000    
     11939 IM1      294      IM1      H2       HDA3A    0.940000E-01   1.00800           0   0.00000       0.00000    
     11940 IM1      294      IM1      H3       HDA3A    0.940000E-01   1.00800           0   0.00000       0.00000    
     11941 IM1      294      IM1      N1       ND2R5A    1.92920       13.6070           0  -1.06300       1.30000    
     11942 IM1      294      IM1      DN1      DRUD     -1.78920      0.400000           0   0.00000       0.00000    
     11943 IM1      294      IM1      C2       CD2R5A    1.66810       11.6110           0  -1.37800       1.30000    
     11944 IM1      294      IM1      DC2      DRUD     -2.03710      0.400000           0   0.00000       0.00000    
     11945 IM1      294      IM1      H4       HDR5A    0.150000       1.00800           0   0.00000       0.00000    
     11946 IM1      294      IM1      C3       CD2R5A    2.22510       11.6110           0  -1.37800       1.30000    
     11947 IM1      294      IM1      DC3      DRUD     -2.03710      0.400000           0   0.00000       0.00000    
     11948 IM1      294      IM1      H5       HDR5A    0.530000E-01   1.00800           0   0.00000       0.00000    
     11949 IM1      294      IM1      C4       CD2R5B    1.73480       11.6110           0 -0.868000       1.30000    
     11950 IM1      294      IM1      DC4      DRUD     -1.61680      0.400000           0   0.00000       0.00000    
     11951 IM1      294      IM1      H6       HDR5B    0.730000E-01   1.00800           0   0.00000       0.00000    
     11952 IM1      294      IM1      N2       ND2R5B    1.59050       13.6070           0 -0.840000       1.00000    
     11953 IM1      294      IM1      DN2      DRUD     -1.59050      0.400000           0   0.00000       0.00000    
     11954 IM1      294      IM1      H7       DUMH      0.00000       1.00800           0   0.00000       0.00000    
     11955 IM1      294      IM1      LPN21    LPD     -0.474000       0.00000          -1   0.00000       0.00000    
     11956 IM1      295      IM1      C1       CD33G     1.64330       11.6110           0  -1.08100       1.00000    
     11957 IM1      295      IM1      DC1      DRUD     -1.80430      0.400000           0   0.00000       0.00000    
     11958 IM1      295      IM1      H1       HDA3A    0.940000E-01   1.00800           0   0.00000       0.00000    
     11959 IM1      295      IM1      H2       HDA3A    0.940000E-01   1.00800           0   0.00000       0.00000    
     11960 IM1      295      IM1      H3       HDA3A    0.940000E-01   1.00800           0   0.00000       0.00000    
     11961 IM1      295      IM1      N1       ND2R5A    1.92920       13.6070           0  -1.06300       1.30000    
     11962 IM1      295      IM1      DN1      DRUD     -1.78920      0.400000           0   0.00000       0.00000    
     11963 IM1      295      IM1      C2       CD2R5A    1.66810       11.6110           0  -1.37800       1.30000    
     11964 IM1      295      IM1      DC2      DRUD     -2.03710      0.400000           0   0.00000       0.00000    
     11965 IM1      295      IM1      H4       HDR5A    0.150000       1.00800           0   0.00000       0.00000    
     11966 IM1      295      IM1      C3       CD2R5A    2.22510       11.6110           0  -1.37800       1.30000    
     11967 IM1      295      IM1      DC3      DRUD     -2.03710      0.400000           0   0.00000       0.00000    
     11968 IM1      295      IM1      H5       HDR5A    0.530000E-01   1.00800           0   0.00000       0.00000    
     11969 IM1      295      IM1      C4       CD2R5B    1.73480       11.6110           0 -0.868000       1.30000    
     11970 IM1      295      IM1      DC4      DRUD     -1.61680      0.400000           0   0.00000       0.00000    
     11971 IM1      295      IM1      H6       HDR5B    0.730000E-01   1.00800           0   0.00000       0.00000    
     11972 IM1      295      IM1      N2       ND2R5B    1.59050       13.6070           0 -0.840000       1.00000    
     11973 IM1      295      IM1      DN2      DRUD     -1.59050      0.400000           0   0.00000       0.00000    
     11974 IM1      295      IM1      H7       DUMH      0.00000       1.00800           0   0.00000       0.00000    
     11975 IM1      295      IM1      LPN21    LPD     -0.474000       0.00000          -1   0.00000       0.00000    
     11976 IM1      296      IM1      C1       CD33G     1.64330       11.6110           0  -1.08100       1.00000    
     11977 IM1      296      IM1      DC1      DRUD     -1.80430      0.400000           0   0.00000       0.00000    
     11978 IM1      296      IM1      H1       HDA3A    0.940000E-01   1.00800           0   0.00000       0.00000    
     11979 IM1      296      IM1      H2       HDA3A    0.940000E-01   1.00800           0   0.00000       0.00000    
     11980 IM1      296      IM1      H3       HDA3A    0.940000E-01   1.00800           0   0.00000       0.00000    
     11981 IM1      296      IM1      N1       ND2R5A    1.92920       13.6070           0  -1.06300       1.30000    
     11982 IM1      296      IM1      DN1      DRUD     -1.78920      0.400000           0   0.00000       0.00000    
     11983 IM1      296      IM1      C2       CD2R5A    1.66810       11.6110           0  -1.37800       1.30000    
     11984 IM1      296      IM1      DC2      DRUD     -2.03710      0.400000           0   0.00000       0.00000    
     11985 IM1      296      IM1      H4       HDR5A    0.150000       1.00800           0   0.00000       0.00000    
     11986 IM1      296      IM1      C3       CD2R5A    2.22510       11.6110           0  -1.37800       1.30000    
     11987 IM1      296      IM1      DC3      DRUD     -2.03710      0.400000           0   0.00000       0.00000    
     11988 IM1      296      IM1      H5       HDR5A    0.530000E-01   1.00800           0   0.00000       0.00000    
     11989 IM1      296      IM1      C4       CD2R5B    1.73480       11.6110           0 -0.868000       1.30000    
     11990 IM1      296      IM1      DC4      DRUD     -1.61680      0.400000           0   0.00000       0.00000    
     11991 IM1      296      IM1      H6       HDR5B    0.730000E-01   1.00800           0   0.00000       0.00000    
     11992 IM1      296      IM1      N2       ND2R5B    1.59050       13.6070           0 -0.840000       1.00000    
     11993 IM1      296      IM1      DN2      DRUD     -1.59050      0.400000           0   0.00000       0.00000    
     11994 IM1      296      IM1      H7       DUMH      0.00000       1.00800           0   0.00000       0.00000    
     11995 IM1      296      IM1      LPN21    LPD     -0.474000       0.00000          -1   0.00000       0.00000    
     11996 IM1      297      IM1      C1       CD33G     1.64330       11.6110           0  -1.08100       1.00000    
     11997 IM1      297      IM1      DC1      DRUD     -1.80430      0.400000           0   0.00000       0.00000    
     11998 IM1      297      IM1      H1       HDA3A    0.940000E-01   1.00800           0   0.00000       0.00000    
     11999 IM1      297      IM1      H2       HDA3A    0.940000E-01   1.00800           0   0.00000       0.00000    
     12000 IM1      297      IM1      H3       HDA3A    0.940000E-01   1.00800           0   0.00000       0.00000    
     12001 IM1      297      IM1      N1       ND2R5A    1.92920       13.6070           0  -1.06300       1.30000    
     12002 IM1      297      IM1      DN1      DRUD     -1.78920      0.400000           0   0.00000       0.00000    
     12003 IM1      297      IM1      C2       CD2R5A    1.66810       11.6110           0  -1.37800       1.30000    
     12004 IM1      297      IM1      DC2      DRUD     -2.03710      0.400000           0   0.00000       0.00000    
     12005 IM1      297      IM1      H4       HDR5A    0.150000       1.00800           0   0.00000       0.00000    
     12006 IM1      297      IM1      C3       CD2R5A    2.22510       11.6110           0  -1.37800       1.30000    
     12007 IM1      297      IM1      DC3      DRUD     -2.03710      0.400000           0   0.00000       0.00000    
     12008 IM1      297      IM1      H5       HDR5A    0.530000E-01   1.00800           0   0.00000       0.00000    
     12009 IM1      297      IM1      C4       CD2R5B    1.73480       11.6110           0 -0.868000       1.30000    
     12010 IM1      297      IM1      DC4      DRUD     -1.61680      0.400000           0   0.00000       0.00000    
     12011 IM1      297      IM1      H6       HDR5B    0.730000E-01   1.00800           0   0.00000       0.00000    
     12012 IM1      297      IM1      N2       ND2R5B    1.59050       13.6070           0 -0.840000       1.00000    
     12013 IM1      297      IM1      DN2      DRUD     -1.59050      0.400000           0   0.00000       0.00000    
     12014 IM1      297      IM1      H7       DUMH      0.00000       1.00800           0   0.00000       0.00000    
     12015 IM1      297      IM1      LPN21    LPD     -0.474000       0.00000          -1   0.00000       0.00000    
     12016 IM1      298      IM1      C1       CD33G     1.64330       11.6110           0  -1.08100       1.00000    
     12017 IM1      298      IM1      DC1      DRUD     -1.80430      0.400000           0   0.00000       0.00000    
     12018 IM1      298      IM1      H1       HDA3A    0.940000E-01   1.00800           0   0.00000       0.00000    
     12019 IM1      298      IM1      H2       HDA3A    0.940000E-01   1.00800           0   0.00000       0.00000    
     12020 IM1      298      IM1      H3       HDA3A    0.940000E-01   1.00800           0   0.00000       0.00000    
     12021 IM1      298      IM1      N1       ND2R5A    1.92920       13.6070           0  -1.06300       1.30000    
     12022 IM1      298      IM1      DN1      DRUD     -1.78920      0.400000           0   0.00000       0.00000    
     12023 IM1      298      IM1      C2       CD2R5A    1.66810       11.6110           0  -1.37800       1.30000    
     12024 IM1      298      IM1      DC2      DRUD     -2.03710      0.400000           0   0.00000       0.00000    
     12025 IM1      298      IM1      H4       HDR5A    0.150000       1.00800           0   0.00000       0.00000    
     12026 IM1      298      IM1      C3       CD2R5A    2.22510       11.6110           0  -1.37800       1.30000    
     12027 IM1      298      IM1      DC3      DRUD     -2.03710      0.400000           0   0.00000       0.00000    
     12028 IM1      298      IM1      H5       HDR5A    0.530000E-01   1.00800           0   0.00000       0.00000    
     12029 IM1      298      IM1      C4       CD2R5B    1.73480       11.6110           0 -0.868000       1.30000    
     12030 IM1      298      IM1      DC4      DRUD     -1.61680      0.400000           0   0.00000       0.00000    
     12031 IM1      298      IM1      H6       HDR5B    0.730000E-01   1.00800           0   0.00000       0.00000    
     12032 IM1      298      IM1      N2       ND2R5B    1.59050       13.6070           0 -0.840000       1.00000    
     12033 IM1      298      IM1      DN2      DRUD     -1.59050      0.400000           0   0.00000       0.00000    
     12034 IM1      298      IM1      H7       DUMH      0.00000       1.00800           0   0.00000       0.00000    
     12035 IM1      298      IM1      LPN21    LPD     -0.474000       0.00000          -1   0.00000       0.00000    
     12036 IM1      299      IM1      C1       CD33G     1.64330       11.6110           0  -1.08100       1.00000    
     12037 IM1      299      IM1      DC1      DRUD     -1.80430      0.400000           0   0.00000       0.00000    
     12038 IM1      299      IM1      H1       HDA3A    0.940000E-01   1.00800           0   0.00000       0.00000    
     12039 IM1      299      IM1      H2       HDA3A    0.940000E-01   1.00800           0   0.00000       0.00000    
     12040 IM1      299      IM1      H3       HDA3A    0.940000E-01   1.00800           0   0.00000       0.00000    
     12041 IM1      299      IM1      N1       ND2R5A    1.92920       13.6070           0  -1.06300       1.30000    
     12042 IM1      299      IM1      DN1      DRUD     -1.78920      0.400000           0   0.00000       0.00000    
     12043 IM1      299      IM1      C2       CD2R5A    1.66810       11.6110           0  -1.37800       1.30000    
     12044 IM1      299      IM1      DC2      DRUD     -2.03710      0.400000           0   0.00000       0.00000    
     12045 IM1      299      IM1      H4       HDR5A    0.150000       1.00800           0   0.00000       0.00000    
     12046 IM1      299      IM1      C3       CD2R5A    2.22510       11.6110           0  -1.37800       1.30000    
     12047 IM1      299      IM1      DC3      DRUD     -2.03710      0.400000           0   0.00000       0.00000    
     12048 IM1      299      IM1      H5       HDR5A    0.530000E-01   1.00800           0   0.00000       0.00000    
     12049 IM1      299      IM1      C4       CD2R5B    1.73480       11.6110           0 -0.868000       1.30000    
     12050 IM1      299      IM1      DC4      DRUD     -1.61680      0.400000           0   0.00000       0.00000    
     12051 IM1      299      IM1      H6       HDR5B    0.730000E-01   1.00800           0   0.00000       0.00000    
     12052 IM1      299      IM1      N2       ND2R5B    1.59050       13.6070           0 -0.840000       1.00000    
     12053 IM1      299      IM1      DN2      DRUD     -1.59050      0.400000           0   0.00000       0.00000    
     12054 IM1      299      IM1      H7       DUMH      0.00000       1.00800           0   0.00000       0.00000    
     12055 IM1      299      IM1      LPN21    LPD     -0.474000       0.00000          -1   0.00000       0.00000    
     12056 IM1      300      IM1      C1       CD33G     1.64330       11.6110           0  -1.08100       1.00000    
     12057 IM1      300      IM1      DC1      DRUD     -1.80430      0.400000           0   0.00000       0.00000    
     12058 IM1      300      IM1      H1       HDA3A    0.940000E-01   1.00800           0   0.00000       0.00000    
     12059 IM1      300      IM1      H2       HDA3A    0.940000E-01   1.00800           0   0.00000       0.00000    
     12060 IM1      300      IM1      H3       HDA3A    0.940000E-01   1.00800           0   0.00000       0.00000    
     12061 IM1      300      IM1      N1       ND2R5A    1.92920       13.6070           0  -1.06300       1.30000    
     12062 IM1      300      IM1      DN1      DRUD     -1.78920      0.400000           0   0.00000       0.00000    
     12063 IM1      300      IM1      C2       CD2R5A    1.66810       11.6110           0  -1.37800       1.30000    
     12064 IM1      300      IM1      DC2      DRUD     -2.03710      0.400000           0   0.00000       0.00000    
     12065 IM1      300      IM1      H4       HDR5A    0.150000       1.00800           0   0.00000       0.00000    
     12066 IM1      300      IM1      C3       CD2R5A    2.22510       11.6110           0  -1.37800       1.30000    
     12067 IM1      300      IM1      DC3      DRUD     -2.03710      0.400000           0   0.00000       0.00000    
     12068 IM1      300      IM1      H5       HDR5A    0.530000E-01   1.00800           0   0.00000       0.00000    
     12069 IM1      300      IM1      C4       CD2R5B    1.73480       11.6110           0 -0.868000       1.30000    
     12070 IM1      300      IM1      DC4      DRUD     -1.61680      0.400000           0   0.00000       0.00000    
     12071 IM1      300      IM1      H6       HDR5B    0.730000E-01   1.00800           0   0.00000       0.00000    
     12072 IM1      300      IM1      N2       ND2R5B    1.59050       13.6070           0 -0.840000       1.00000    
     12073 IM1      300      IM1      DN2      DRUD     -1.59050      0.400000           0   0.00000       0.00000    
     12074 IM1      300      IM1      H7       DUMH      0.00000       1.00800           0   0.00000       0.00000    
     12075 IM1      300      IM1      LPN21    LPD     -0.474000       0.00000          -1   0.00000       0.00000    
     12076 IM1      301      IM1      C1       CD33G     1.64330       11.6110           0  -1.08100       1.00000    
     12077 IM1      301      IM1      DC1      DRUD     -1.80430      0.400000           0   0.00000       0.00000    
     12078 IM1      301      IM1      H1       HDA3A    0.940000E-01   1.00800           0   0.00000       0.00000    
     12079 IM1      301      IM1      H2       HDA3A    0.940000E-01   1.00800           0   0.00000       0.00000    
     12080 IM1      301      IM1      H3       HDA3A    0.940000E-01   1.00800           0   0.00000       0.00000    
     12081 IM1      301      IM1      N1       ND2R5A    1.92920       13.6070           0  -1.06300       1.30000    
     12082 IM1      301      IM1      DN1      DRUD     -1.78920      0.400000           0   0.00000       0.00000    
     12083 IM1      301      IM1      C2       CD2R5A    1.66810       11.6110           0  -1.37800       1.30000    
     12084 IM1      301      IM1      DC2      DRUD     -2.03710      0.400000           0   0.00000       0.00000    
     12085 IM1      301      IM1      H4       HDR5A    0.150000       1.00800           0   0.00000       0.00000    
     12086 IM1      301      IM1      C3       CD2R5A    2.22510       11.6110           0  -1.37800       1.30000    
     12087 IM1      301      IM1      DC3      DRUD     -2.03710      0.400000           0   0.00000       0.00000    
     12088 IM1      301      IM1      H5       HDR5A    0.530000E-01   1.00800           0   0.00000       0.00000    
     12089 IM1      301      IM1      C4       CD2R5B    1.73480       11.6110           0 -0.868000       1.30000    
     12090 IM1      301      IM1      DC4      DRUD     -1.61680      0.400000           0   0.00000       0.00000    
     12091 IM1      301      IM1      H6       HDR5B    0.730000E-01   1.00800           0   0.00000       0.00000    
     12092 IM1      301      IM1      N2       ND2R5B    1.59050       13.6070           0 -0.840000       1.00000    
     12093 IM1      301      IM1      DN2      DRUD     -1.59050      0.400000           0   0.00000       0.00000    
     12094 IM1      301      IM1      H7       DUMH      0.00000       1.00800           0   0.00000       0.00000    
     12095 IM1      301      IM1      LPN21    LPD     -0.474000       0.00000          -1   0.00000       0.00000    
     12096 IM1      302      IM1      C1       CD33G     1.64330       11.6110           0  -1.08100       1.00000    
     12097 IM1      302      IM1      DC1      DRUD     -1.80430      0.400000           0   0.00000       0.00000    
     12098 IM1      302      IM1      H1       HDA3A    0.940000E-01   1.00800           0   0.00000       0.00000    
     12099 IM1      302      IM1      H2       HDA3A    0.940000E-01   1.00800           0   0.00000       0.00000    
     12100 IM1      302      IM1      H3       HDA3A    0.940000E-01   1.00800           0   0.00000       0.00000    
     12101 IM1      302      IM1      N1       ND2R5A    1.92920       13.6070           0  -1.06300       1.30000    
     12102 IM1      302      IM1      DN1      DRUD     -1.78920      0.400000           0   0.00000       0.00000    
     12103 IM1      302      IM1      C2       CD2R5A    1.66810       11.6110           0  -1.37800       1.30000    
     12104 IM1      302      IM1      DC2      DRUD     -2.03710      0.400000           0   0.00000       0.00000    
     12105 IM1      302      IM1      H4       HDR5A    0.150000       1.00800           0   0.00000       0.00000    
     12106 IM1      302      IM1      C3       CD2R5A    2.22510       11.6110           0  -1.37800       1.30000    
     12107 IM1      302      IM1      DC3      DRUD     -2.03710      0.400000           0   0.00000       0.00000    
     12108 IM1      302      IM1      H5       HDR5A    0.530000E-01   1.00800           0   0.00000       0.00000    
     12109 IM1      302      IM1      C4       CD2R5B    1.73480       11.6110           0 -0.868000       1.30000    
     12110 IM1      302      IM1      DC4      DRUD     -1.61680      0.400000           0   0.00000       0.00000    
     12111 IM1      302      IM1      H6       HDR5B    0.730000E-01   1.00800           0   0.00000       0.00000    
     12112 IM1      302      IM1      N2       ND2R5B    1.59050       13.6070           0 -0.840000       1.00000    
     12113 IM1      302      IM1      DN2      DRUD     -1.59050      0.400000           0   0.00000       0.00000    
     12114 IM1      302      IM1      H7       DUMH      0.00000       1.00800           0   0.00000       0.00000    
     12115 IM1      302      IM1      LPN21    LPD     -0.474000       0.00000          -1   0.00000       0.00000    
     12116 IM1      303      IM1      C1       CD33G     1.64330       11.6110           0  -1.08100       1.00000    
     12117 IM1      303      IM1      DC1      DRUD     -1.80430      0.400000           0   0.00000       0.00000    
     12118 IM1      303      IM1      H1       HDA3A    0.940000E-01   1.00800           0   0.00000       0.00000    
     12119 IM1      303      IM1      H2       HDA3A    0.940000E-01   1.00800           0   0.00000       0.00000    
     12120 IM1      303      IM1      H3       HDA3A    0.940000E-01   1.00800           0   0.00000       0.00000    
     12121 IM1      303      IM1      N1       ND2R5A    1.92920       13.6070           0  -1.06300       1.30000    
     12122 IM1      303      IM1      DN1      DRUD     -1.78920      0.400000           0   0.00000       0.00000    
     12123 IM1      303      IM1      C2       CD2R5A    1.66810       11.6110           0  -1.37800       1.30000    
     12124 IM1      303      IM1      DC2      DRUD     -2.03710      0.400000           0   0.00000       0.00000    
     12125 IM1      303      IM1      H4       HDR5A    0.150000       1.00800           0   0.00000       0.00000    
     12126 IM1      303      IM1      C3       CD2R5A    2.22510       11.6110           0  -1.37800       1.30000    
     12127 IM1      303      IM1      DC3      DRUD     -2.03710      0.400000           0   0.00000       0.00000    
     12128 IM1      303      IM1      H5       HDR5A    0.530000E-01   1.00800           0   0.00000       0.00000    
     12129 IM1      303      IM1      C4       CD2R5B    1.73480       11.6110           0 -0.868000       1.30000    
     12130 IM1      303      IM1      DC4      DRUD     -1.61680      0.400000           0   0.00000       0.00000    
     12131 IM1      303      IM1      H6       HDR5B    0.730000E-01   1.00800           0   0.00000       0.00000    
     12132 IM1      303      IM1      N2       ND2R5B    1.59050       13.6070           0 -0.840000       1.00000    
     12133 IM1      303      IM1      DN2      DRUD     -1.59050      0.400000           0   0.00000       0.00000    
     12134 IM1      303      IM1      H7       DUMH      0.00000       1.00800           0   0.00000       0.00000    
     12135 IM1      303      IM1      LPN21    LPD     -0.474000       0.00000          -1   0.00000       0.00000    
     12136 IM1      304      IM1      C1       CD33G     1.64330       11.6110           0  -1.08100       1.00000    
     12137 IM1      304      IM1      DC1      DRUD     -1.80430      0.400000           0   0.00000       0.00000    
     12138 IM1      304      IM1      H1       HDA3A    0.940000E-01   1.00800           0   0.00000       0.00000    
     12139 IM1      304      IM1      H2       HDA3A    0.940000E-01   1.00800           0   0.00000       0.00000    
     12140 IM1      304      IM1      H3       HDA3A    0.940000E-01   1.00800           0   0.00000       0.00000    
     12141 IM1      304      IM1      N1       ND2R5A    1.92920       13.6070           0  -1.06300       1.30000    
     12142 IM1      304      IM1      DN1      DRUD     -1.78920      0.400000           0   0.00000       0.00000    
     12143 IM1      304      IM1      C2       CD2R5A    1.66810       11.6110           0  -1.37800       1.30000    
     12144 IM1      304      IM1      DC2      DRUD     -2.03710      0.400000           0   0.00000       0.00000    
     12145 IM1      304      IM1      H4       HDR5A    0.150000       1.00800           0   0.00000       0.00000    
     12146 IM1      304      IM1      C3       CD2R5A    2.22510       11.6110           0  -1.37800       1.30000    
     12147 IM1      304      IM1      DC3      DRUD     -2.03710      0.400000           0   0.00000       0.00000    
     12148 IM1      304      IM1      H5       HDR5A    0.530000E-01   1.00800           0   0.00000       0.00000    
     12149 IM1      304      IM1      C4       CD2R5B    1.73480       11.6110           0 -0.868000       1.30000    
     12150 IM1      304      IM1      DC4      DRUD     -1.61680      0.400000           0   0.00000       0.00000    
     12151 IM1      304      IM1      H6       HDR5B    0.730000E-01   1.00800           0   0.00000       0.00000    
     12152 IM1      304      IM1      N2       ND2R5B    1.59050       13.6070           0 -0.840000       1.00000    
     12153 IM1      304      IM1      DN2      DRUD     -1.59050      0.400000           0   0.00000       0.00000    
     12154 IM1      304      IM1      H7       DUMH      0.00000       1.00800           0   0.00000       0.00000    
     12155 IM1      304      IM1      LPN21    LPD     -0.474000       0.00000          -1   0.00000       0.00000    
     12156 IM1      305      IM1      C1       CD33G     1.64330       11.6110           0  -1.08100       1.00000    
     12157 IM1      305      IM1      DC1      DRUD     -1.80430      0.400000           0   0.00000       0.00000    
     12158 IM1      305      IM1      H1       HDA3A    0.940000E-01   1.00800           0   0.00000       0.00000    
     12159 IM1      305      IM1      H2       HDA3A    0.940000E-01   1.00800           0   0.00000       0.00000    
     12160 IM1      305      IM1      H3       HDA3A    0.940000E-01   1.00800           0   0.00000       0.00000    
     12161 IM1      305      IM1      N1       ND2R5A    1.92920       13.6070           0  -1.06300       1.30000    
     12162 IM1      305      IM1      DN1      DRUD     -1.78920      0.400000           0   0.00000       0.00000    
     12163 IM1      305      IM1      C2       CD2R5A    1.66810       11.6110           0  -1.37800       1.30000    
     12164 IM1      305      IM1      DC2      DRUD     -2.03710      0.400000           0   0.00000       0.00000    
     12165 IM1      305      IM1      H4       HDR5A    0.150000       1.00800           0   0.00000       0.00000    
     12166 IM1      305      IM1      C3       CD2R5A    2.22510       11.6110           0  -1.37800       1.30000    
     12167 IM1      305      IM1      DC3      DRUD     -2.03710      0.400000           0   0.00000       0.00000    
     12168 IM1      305      IM1      H5       HDR5A    0.530000E-01   1.00800           0   0.00000       0.00000    
     12169 IM1      305      IM1      C4       CD2R5B    1.73480       11.6110           0 -0.868000       1.30000    
     12170 IM1      305      IM1      DC4      DRUD     -1.61680      0.400000           0   0.00000       0.00000    
     12171 IM1      305      IM1      H6       HDR5B    0.730000E-01   1.00800           0   0.00000       0.00000    
     12172 IM1      305      IM1      N2       ND2R5B    1.59050       13.6070           0 -0.840000       1.00000    
     12173 IM1      305      IM1      DN2      DRUD     -1.59050      0.400000           0   0.00000       0.00000    
     12174 IM1      305      IM1      H7       DUMH      0.00000       1.00800           0   0.00000       0.00000    
     12175 IM1      305      IM1      LPN21    LPD     -0.474000       0.00000          -1   0.00000       0.00000    
     12176 IM1      306      IM1      C1       CD33G     1.64330       11.6110           0  -1.08100       1.00000    
     12177 IM1      306      IM1      DC1      DRUD     -1.80430      0.400000           0   0.00000       0.00000    
     12178 IM1      306      IM1      H1       HDA3A    0.940000E-01   1.00800           0   0.00000       0.00000    
     12179 IM1      306      IM1      H2       HDA3A    0.940000E-01   1.00800           0   0.00000       0.00000    
     12180 IM1      306      IM1      H3       HDA3A    0.940000E-01   1.00800           0   0.00000       0.00000    
     12181 IM1      306      IM1      N1       ND2R5A    1.92920       13.6070           0  -1.06300       1.30000    
     12182 IM1      306      IM1      DN1      DRUD     -1.78920      0.400000           0   0.00000       0.00000    
     12183 IM1      306      IM1      C2       CD2R5A    1.66810       11.6110           0  -1.37800       1.30000    
     12184 IM1      306      IM1      DC2      DRUD     -2.03710      0.400000           0   0.00000       0.00000    
     12185 IM1      306      IM1      H4       HDR5A    0.150000       1.00800           0   0.00000       0.00000    
     12186 IM1      306      IM1      C3       CD2R5A    2.22510       11.6110           0  -1.37800       1.30000    
     12187 IM1      306      IM1      DC3      DRUD     -2.03710      0.400000           0   0.00000       0.00000    
     12188 IM1      306      IM1      H5       HDR5A    0.530000E-01   1.00800           0   0.00000       0.00000    
     12189 IM1      306      IM1      C4       CD2R5B    1.73480       11.6110           0 -0.868000       1.30000    
     12190 IM1      306      IM1      DC4      DRUD     -1.61680      0.400000           0   0.00000       0.00000    
     12191 IM1      306      IM1      H6       HDR5B    0.730000E-01   1.00800           0   0.00000       0.00000    
     12192 IM1      306      IM1      N2       ND2R5B    1.59050       13.6070           0 -0.840000       1.00000    
     12193 IM1      306      IM1      DN2      DRUD     -1.59050      0.400000           0   0.00000       0.00000    
     12194 IM1      306      IM1      H7       DUMH      0.00000       1.00800           0   0.00000       0.00000    
     12195 IM1      306      IM1      LPN21    LPD     -0.474000       0.00000          -1   0.00000       0.00000    
     12196 IM1      307      IM1      C1       CD33G     1.64330       11.6110           0  -1.08100       1.00000    
     12197 IM1      307      IM1      DC1      DRUD     -1.80430      0.400000           0   0.00000       0.00000    
     12198 IM1      307      IM1      H1       HDA3A    0.940000E-01   1.00800           0   0.00000       0.00000    
     12199 IM1      307      IM1      H2       HDA3A    0.940000E-01   1.00800           0   0.00000       0.00000    
     12200 IM1      307      IM1      H3       HDA3A    0.940000E-01   1.00800           0   0.00000       0.00000    
     12201 IM1      307      IM1      N1       ND2R5A    1.92920       13.6070           0  -1.06300       1.30000    
     12202 IM1      307      IM1      DN1      DRUD     -1.78920      0.400000           0   0.00000       0.00000    
     12203 IM1      307      IM1      C2       CD2R5A    1.66810       11.6110           0  -1.37800       1.30000    
     12204 IM1      307      IM1      DC2      DRUD     -2.03710      0.400000           0   0.00000       0.00000    
     12205 IM1      307      IM1      H4       HDR5A    0.150000       1.00800           0   0.00000       0.00000    
     12206 IM1      307      IM1      C3       CD2R5A    2.22510       11.6110           0  -1.37800       1.30000    
     12207 IM1      307      IM1      DC3      DRUD     -2.03710      0.400000           0   0.00000       0.00000    
     12208 IM1      307      IM1      H5       HDR5A    0.530000E-01   1.00800           0   0.00000       0.00000    
     12209 IM1      307      IM1      C4       CD2R5B    1.73480       11.6110           0 -0.868000       1.30000    
     12210 IM1      307      IM1      DC4      DRUD     -1.61680      0.400000           0   0.00000       0.00000    
     12211 IM1      307      IM1      H6       HDR5B    0.730000E-01   1.00800           0   0.00000       0.00000    
     12212 IM1      307      IM1      N2       ND2R5B    1.59050       13.6070           0 -0.840000       1.00000    
     12213 IM1      307      IM1      DN2      DRUD     -1.59050      0.400000           0   0.00000       0.00000    
     12214 IM1      307      IM1      H7       DUMH      0.00000       1.00800           0   0.00000       0.00000    
     12215 IM1      307      IM1      LPN21    LPD     -0.474000       0.00000          -1   0.00000       0.00000    
     12216 IM1      308      IM1      C1       CD33G     1.64330       11.6110           0  -1.08100       1.00000    
     12217 IM1      308      IM1      DC1      DRUD     -1.80430      0.400000           0   0.00000       0.00000    
     12218 IM1      308      IM1      H1       HDA3A    0.940000E-01   1.00800           0   0.00000       0.00000    
     12219 IM1      308      IM1      H2       HDA3A    0.940000E-01   1.00800           0   0.00000       0.00000    
     12220 IM1      308      IM1      H3       HDA3A    0.940000E-01   1.00800           0   0.00000       0.00000    
     12221 IM1      308      IM1      N1       ND2R5A    1.92920       13.6070           0  -1.06300       1.30000    
     12222 IM1      308      IM1      DN1      DRUD     -1.78920      0.400000           0   0.00000       0.00000    
     12223 IM1      308      IM1      C2       CD2R5A    1.66810       11.6110           0  -1.37800       1.30000    
     12224 IM1      308      IM1      DC2      DRUD     -2.03710      0.400000           0   0.00000       0.00000    
     12225 IM1      308      IM1      H4       HDR5A    0.150000       1.00800           0   0.00000       0.00000    
     12226 IM1      308      IM1      C3       CD2R5A    2.22510       11.6110           0  -1.37800       1.30000    
     12227 IM1      308      IM1      DC3      DRUD     -2.03710      0.400000           0   0.00000       0.00000    
     12228 IM1      308      IM1      H5       HDR5A    0.530000E-01   1.00800           0   0.00000       0.00000    
     12229 IM1      308      IM1      C4       CD2R5B    1.73480       11.6110           0 -0.868000       1.30000    
     12230 IM1      308      IM1      DC4      DRUD     -1.61680      0.400000           0   0.00000       0.00000    
     12231 IM1      308      IM1      H6       HDR5B    0.730000E-01   1.00800           0   0.00000       0.00000    
     12232 IM1      308      IM1      N2       ND2R5B    1.59050       13.6070           0 -0.840000       1.00000    
     12233 IM1      308      IM1      DN2      DRUD     -1.59050      0.400000           0   0.00000       0.00000    
     12234 IM1      308      IM1      H7       DUMH      0.00000       1.00800           0   0.00000       0.00000    
     12235 IM1      308      IM1      LPN21    LPD     -0.474000       0.00000          -1   0.00000       0.00000    
     12236 IM1      309      IM1      C1       CD33G     1.64330       11.6110           0  -1.08100       1.00000    
     12237 IM1      309      IM1      DC1      DRUD     -1.80430      0.400000           0   0.00000       0.00000    
     12238 IM1      309      IM1      H1       HDA3A    0.940000E-01   1.00800           0   0.00000       0.00000    
     12239 IM1      309      IM1      H2       HDA3A    0.940000E-01   1.00800           0   0.00000       0.00000    
     12240 IM1      309      IM1      H3       HDA3A    0.940000E-01   1.00800           0   0.00000       0.00000    
     12241 IM1      309      IM1      N1       ND2R5A    1.92920       13.6070           0  -1.06300       1.30000    
     12242 IM1      309      IM1      DN1      DRUD     -1.78920      0.400000           0   0.00000       0.00000    
     12243 IM1      309      IM1      C2       CD2R5A    1.66810       11.6110           0  -1.37800       1.30000    
     12244 IM1      309      IM1      DC2      DRUD     -2.03710      0.400000           0   0.00000       0.00000    
     12245 IM1      309      IM1      H4       HDR5A    0.150000       1.00800           0   0.00000       0.00000    
     12246 IM1      309      IM1      C3       CD2R5A    2.22510       11.6110           0  -1.37800       1.30000    
     12247 IM1      309      IM1      DC3      DRUD     -2.03710      0.400000           0   0.00000       0.00000    
     12248 IM1      309      IM1      H5       HDR5A    0.530000E-01   1.00800           0   0.00000       0.00000    
     12249 IM1      309      IM1      C4       CD2R5B    1.73480       11.6110           0 -0.868000       1.30000    
     12250 IM1      309      IM1      DC4      DRUD     -1.61680      0.400000           0   0.00000       0.00000    
     12251 IM1      309      IM1      H6       HDR5B    0.730000E-01   1.00800           0   0.00000       0.00000    
     12252 IM1      309      IM1      N2       ND2R5B    1.59050       13.6070           0 -0.840000       1.00000    
     12253 IM1      309      IM1      DN2      DRUD     -1.59050      0.400000           0   0.00000       0.00000    
     12254 IM1      309      IM1      H7       DUMH      0.00000       1.00800           0   0.00000       0.00000    
     12255 IM1      309      IM1      LPN21    LPD     -0.474000       0.00000          -1   0.00000       0.00000    
     12256 IM1      310      IM1      C1       CD33G     1.64330       11.6110           0  -1.08100       1.00000    
     12257 IM1      310      IM1      DC1      DRUD     -1.80430      0.400000           0   0.00000       0.00000    
     12258 IM1      310      IM1      H1       HDA3A    0.940000E-01   1.00800           0   0.00000       0.00000    
     12259 IM1      310      IM1      H2       HDA3A    0.940000E-01   1.00800           0   0.00000       0.00000    
     12260 IM1      310      IM1      H3       HDA3A    0.940000E-01   1.00800           0   0.00000       0.00000    
     12261 IM1      310      IM1      N1       ND2R5A    1.92920       13.6070           0  -1.06300       1.30000    
     12262 IM1      310      IM1      DN1      DRUD     -1.78920      0.400000           0   0.00000       0.00000    
     12263 IM1      310      IM1      C2       CD2R5A    1.66810       11.6110           0  -1.37800       1.30000    
     12264 IM1      310      IM1      DC2      DRUD     -2.03710      0.400000           0   0.00000       0.00000    
     12265 IM1      310      IM1      H4       HDR5A    0.150000       1.00800           0   0.00000       0.00000    
     12266 IM1      310      IM1      C3       CD2R5A    2.22510       11.6110           0  -1.37800       1.30000    
     12267 IM1      310      IM1      DC3      DRUD     -2.03710      0.400000           0   0.00000       0.00000    
     12268 IM1      310      IM1      H5       HDR5A    0.530000E-01   1.00800           0   0.00000       0.00000    
     12269 IM1      310      IM1      C4       CD2R5B    1.73480       11.6110           0 -0.868000       1.30000    
     12270 IM1      310      IM1      DC4      DRUD     -1.61680      0.400000           0   0.00000       0.00000    
     12271 IM1      310      IM1      H6       HDR5B    0.730000E-01   1.00800           0   0.00000       0.00000    
     12272 IM1      310      IM1      N2       ND2R5B    1.59050       13.6070           0 -0.840000       1.00000    
     12273 IM1      310      IM1      DN2      DRUD     -1.59050      0.400000           0   0.00000       0.00000    
     12274 IM1      310      IM1      H7       DUMH      0.00000       1.00800           0   0.00000       0.00000    
     12275 IM1      310      IM1      LPN21    LPD     -0.474000       0.00000          -1   0.00000       0.00000    
     12276 IM1      311      IM1      C1       CD33G     1.64330       11.6110           0  -1.08100       1.00000    
     12277 IM1      311      IM1      DC1      DRUD     -1.80430      0.400000           0   0.00000       0.00000    
     12278 IM1      311      IM1      H1       HDA3A    0.940000E-01   1.00800           0   0.00000       0.00000    
     12279 IM1      311      IM1      H2       HDA3A    0.940000E-01   1.00800           0   0.00000       0.00000    
     12280 IM1      311      IM1      H3       HDA3A    0.940000E-01   1.00800           0   0.00000       0.00000    
     12281 IM1      311      IM1      N1       ND2R5A    1.92920       13.6070           0  -1.06300       1.30000    
     12282 IM1      311      IM1      DN1      DRUD     -1.78920      0.400000           0   0.00000       0.00000    
     12283 IM1      311      IM1      C2       CD2R5A    1.66810       11.6110           0  -1.37800       1.30000    
     12284 IM1      311      IM1      DC2      DRUD     -2.03710      0.400000           0   0.00000       0.00000    
     12285 IM1      311      IM1      H4       HDR5A    0.150000       1.00800           0   0.00000       0.00000    
     12286 IM1      311      IM1      C3       CD2R5A    2.22510       11.6110           0  -1.37800       1.30000    
     12287 IM1      311      IM1      DC3      DRUD     -2.03710      0.400000           0   0.00000       0.00000    
     12288 IM1      311      IM1      H5       HDR5A    0.530000E-01   1.00800           0   0.00000       0.00000    
     12289 IM1      311      IM1      C4       CD2R5B    1.73480       11.6110           0 -0.868000       1.30000    
     12290 IM1      311      IM1      DC4      DRUD     -1.61680      0.400000           0   0.00000       0.00000    
     12291 IM1      311      IM1      H6       HDR5B    0.730000E-01   1.00800           0   0.00000       0.00000    
     12292 IM1      311      IM1      N2       ND2R5B    1.59050       13.6070           0 -0.840000       1.00000    
     12293 IM1      311      IM1      DN2      DRUD     -1.59050      0.400000           0   0.00000       0.00000    
     12294 IM1      311      IM1      H7       DUMH      0.00000       1.00800           0   0.00000       0.00000    
     12295 IM1      311      IM1      LPN21    LPD     -0.474000       0.00000          -1   0.00000       0.00000    
     12296 IM1      312      IM1      C1       CD33G     1.64330       11.6110           0  -1.08100       1.00000    
     12297 IM1      312      IM1      DC1      DRUD     -1.80430      0.400000           0   0.00000       0.00000    
     12298 IM1      312      IM1      H1       HDA3A    0.940000E-01   1.00800           0   0.00000       0.00000    
     12299 IM1      312      IM1      H2       HDA3A    0.940000E-01   1.00800           0   0.00000       0.00000    
     12300 IM1      312      IM1      H3       HDA3A    0.940000E-01   1.00800           0   0.00000       0.00000    
     12301 IM1      312      IM1      N1       ND2R5A    1.92920       13.6070           0  -1.06300       1.30000    
     12302 IM1      312      IM1      DN1      DRUD     -1.78920      0.400000           0   0.00000       0.00000    
     12303 IM1      312      IM1      C2       CD2R5A    1.66810       11.6110           0  -1.37800       1.30000    
     12304 IM1      312      IM1      DC2      DRUD     -2.03710      0.400000           0   0.00000       0.00000    
     12305 IM1      312      IM1      H4       HDR5A    0.150000       1.00800           0   0.00000       0.00000    
     12306 IM1      312      IM1      C3       CD2R5A    2.22510       11.6110           0  -1.37800       1.30000    
     12307 IM1      312      IM1      DC3      DRUD     -2.03710      0.400000           0   0.00000       0.00000    
     12308 IM1      312      IM1      H5       HDR5A    0.530000E-01   1.00800           0   0.00000       0.00000    
     12309 IM1      312      IM1      C4       CD2R5B    1.73480       11.6110           0 -0.868000       1.30000    
     12310 IM1      312      IM1      DC4      DRUD     -1.61680      0.400000           0   0.00000       0.00000    
     12311 IM1      312      IM1      H6       HDR5B    0.730000E-01   1.00800           0   0.00000       0.00000    
     12312 IM1      312      IM1      N2       ND2R5B    1.59050       13.6070           0 -0.840000       1.00000    
     12313 IM1      312      IM1      DN2      DRUD     -1.59050      0.400000           0   0.00000       0.00000    
     12314 IM1      312      IM1      H7       DUMH      0.00000       1.00800           0   0.00000       0.00000    
     12315 IM1      312      IM1      LPN21    LPD     -0.474000       0.00000          -1   0.00000       0.00000    
     12316 IM1      313      IM1      C1       CD33G     1.64330       11.6110           0  -1.08100       1.00000    
     12317 IM1      313      IM1      DC1      DRUD     -1.80430      0.400000           0   0.00000       0.00000    
     12318 IM1      313      IM1      H1       HDA3A    0.940000E-01   1.00800           0   0.00000       0.00000    
     12319 IM1      313      IM1      H2       HDA3A    0.940000E-01   1.00800           0   0.00000       0.00000    
     12320 IM1      313      IM1      H3       HDA3A    0.940000E-01   1.00800           0   0.00000       0.00000    
     12321 IM1      313      IM1      N1       ND2R5A    1.92920       13.6070           0  -1.06300       1.30000    
     12322 IM1      313      IM1      DN1      DRUD     -1.78920      0.400000           0   0.00000       0.00000    
     12323 IM1      313      IM1      C2       CD2R5A    1.66810       11.6110           0  -1.37800       1.30000    
     12324 IM1      313      IM1      DC2      DRUD     -2.03710      0.400000           0   0.00000       0.00000    
     12325 IM1      313      IM1      H4       HDR5A    0.150000       1.00800           0   0.00000       0.00000    
     12326 IM1      313      IM1      C3       CD2R5A    2.22510       11.6110           0  -1.37800       1.30000    
     12327 IM1      313      IM1      DC3      DRUD     -2.03710      0.400000           0   0.00000       0.00000    
     12328 IM1      313      IM1      H5       HDR5A    0.530000E-01   1.00800           0   0.00000       0.00000    
     12329 IM1      313      IM1      C4       CD2R5B    1.73480       11.6110           0 -0.868000       1.30000    
     12330 IM1      313      IM1      DC4      DRUD     -1.61680      0.400000           0   0.00000       0.00000    
     12331 IM1      313      IM1      H6       HDR5B    0.730000E-01   1.00800           0   0.00000       0.00000    
     12332 IM1      313      IM1      N2       ND2R5B    1.59050       13.6070           0 -0.840000       1.00000    
     12333 IM1      313      IM1      DN2      DRUD     -1.59050      0.400000           0   0.00000       0.00000    
     12334 IM1      313      IM1      H7       DUMH      0.00000       1.00800           0   0.00000       0.00000    
     12335 IM1      313      IM1      LPN21    LPD     -0.474000       0.00000          -1   0.00000       0.00000    
     12336 IM1      314      IM1      C1       CD33G     1.64330       11.6110           0  -1.08100       1.00000    
     12337 IM1      314      IM1      DC1      DRUD     -1.80430      0.400000           0   0.00000       0.00000    
     12338 IM1      314      IM1      H1       HDA3A    0.940000E-01   1.00800           0   0.00000       0.00000    
     12339 IM1      314      IM1      H2       HDA3A    0.940000E-01   1.00800           0   0.00000       0.00000    
     12340 IM1      314      IM1      H3       HDA3A    0.940000E-01   1.00800           0   0.00000       0.00000    
     12341 IM1      314      IM1      N1       ND2R5A    1.92920       13.6070           0  -1.06300       1.30000    
     12342 IM1      314      IM1      DN1      DRUD     -1.78920      0.400000           0   0.00000       0.00000    
     12343 IM1      314      IM1      C2       CD2R5A    1.66810       11.6110           0  -1.37800       1.30000    
     12344 IM1      314      IM1      DC2      DRUD     -2.03710      0.400000           0   0.00000       0.00000    
     12345 IM1      314      IM1      H4       HDR5A    0.150000       1.00800           0   0.00000       0.00000    
     12346 IM1      314      IM1      C3       CD2R5A    2.22510       11.6110           0  -1.37800       1.30000    
     12347 IM1      314      IM1      DC3      DRUD     -2.03710      0.400000           0   0.00000       0.00000    
     12348 IM1      314      IM1      H5       HDR5A    0.530000E-01   1.00800           0   0.00000       0.00000    
     12349 IM1      314      IM1      C4       CD2R5B    1.73480       11.6110           0 -0.868000       1.30000    
     12350 IM1      314      IM1      DC4      DRUD     -1.61680      0.400000           0   0.00000       0.00000    
     12351 IM1      314      IM1      H6       HDR5B    0.730000E-01   1.00800           0   0.00000       0.00000    
     12352 IM1      314      IM1      N2       ND2R5B    1.59050       13.6070           0 -0.840000       1.00000    
     12353 IM1      314      IM1      DN2      DRUD     -1.59050      0.400000           0   0.00000       0.00000    
     12354 IM1      314      IM1      H7       DUMH      0.00000       1.00800           0   0.00000       0.00000    
     12355 IM1      314      IM1      LPN21    LPD     -0.474000       0.00000          -1   0.00000       0.00000    
     12356 IM1      315      IM1      C1       CD33G     1.64330       11.6110           0  -1.08100       1.00000    
     12357 IM1      315      IM1      DC1      DRUD     -1.80430      0.400000           0   0.00000       0.00000    
     12358 IM1      315      IM1      H1       HDA3A    0.940000E-01   1.00800           0   0.00000       0.00000    
     12359 IM1      315      IM1      H2       HDA3A    0.940000E-01   1.00800           0   0.00000       0.00000    
     12360 IM1      315      IM1      H3       HDA3A    0.940000E-01   1.00800           0   0.00000       0.00000    
     12361 IM1      315      IM1      N1       ND2R5A    1.92920       13.6070           0  -1.06300       1.30000    
     12362 IM1      315      IM1      DN1      DRUD     -1.78920      0.400000           0   0.00000       0.00000    
     12363 IM1      315      IM1      C2       CD2R5A    1.66810       11.6110           0  -1.37800       1.30000    
     12364 IM1      315      IM1      DC2      DRUD     -2.03710      0.400000           0   0.00000       0.00000    
     12365 IM1      315      IM1      H4       HDR5A    0.150000       1.00800           0   0.00000       0.00000    
     12366 IM1      315      IM1      C3       CD2R5A    2.22510       11.6110           0  -1.37800       1.30000    
     12367 IM1      315      IM1      DC3      DRUD     -2.03710      0.400000           0   0.00000       0.00000    
     12368 IM1      315      IM1      H5       HDR5A    0.530000E-01   1.00800           0   0.00000       0.00000    
     12369 IM1      315      IM1      C4       CD2R5B    1.73480       11.6110           0 -0.868000       1.30000    
     12370 IM1      315      IM1      DC4      DRUD     -1.61680      0.400000           0   0.00000       0.00000    
     12371 IM1      315      IM1      H6       HDR5B    0.730000E-01   1.00800           0   0.00000       0.00000    
     12372 IM1      315      IM1      N2       ND2R5B    1.59050       13.6070           0 -0.840000       1.00000    
     12373 IM1      315      IM1      DN2      DRUD     -1.59050      0.400000           0   0.00000       0.00000    
     12374 IM1      315      IM1      H7       DUMH      0.00000       1.00800           0   0.00000       0.00000    
     12375 IM1      315      IM1      LPN21    LPD     -0.474000       0.00000          -1   0.00000       0.00000    
     12376 IM1      316      IM1      C1       CD33G     1.64330       11.6110           0  -1.08100       1.00000    
     12377 IM1      316      IM1      DC1      DRUD     -1.80430      0.400000           0   0.00000       0.00000    
     12378 IM1      316      IM1      H1       HDA3A    0.940000E-01   1.00800           0   0.00000       0.00000    
     12379 IM1      316      IM1      H2       HDA3A    0.940000E-01   1.00800           0   0.00000       0.00000    
     12380 IM1      316      IM1      H3       HDA3A    0.940000E-01   1.00800           0   0.00000       0.00000    
     12381 IM1      316      IM1      N1       ND2R5A    1.92920       13.6070           0  -1.06300       1.30000    
     12382 IM1      316      IM1      DN1      DRUD     -1.78920      0.400000           0   0.00000       0.00000    
     12383 IM1      316      IM1      C2       CD2R5A    1.66810       11.6110           0  -1.37800       1.30000    
     12384 IM1      316      IM1      DC2      DRUD     -2.03710      0.400000           0   0.00000       0.00000    
     12385 IM1      316      IM1      H4       HDR5A    0.150000       1.00800           0   0.00000       0.00000    
     12386 IM1      316      IM1      C3       CD2R5A    2.22510       11.6110           0  -1.37800       1.30000    
     12387 IM1      316      IM1      DC3      DRUD     -2.03710      0.400000           0   0.00000       0.00000    
     12388 IM1      316      IM1      H5       HDR5A    0.530000E-01   1.00800           0   0.00000       0.00000    
     12389 IM1      316      IM1      C4       CD2R5B    1.73480       11.6110           0 -0.868000       1.30000    
     12390 IM1      316      IM1      DC4      DRUD     -1.61680      0.400000           0   0.00000       0.00000    
     12391 IM1      316      IM1      H6       HDR5B    0.730000E-01   1.00800           0   0.00000       0.00000    
     12392 IM1      316      IM1      N2       ND2R5B    1.59050       13.6070           0 -0.840000       1.00000    
     12393 IM1      316      IM1      DN2      DRUD     -1.59050      0.400000           0   0.00000       0.00000    
     12394 IM1      316      IM1      H7       DUMH      0.00000       1.00800           0   0.00000       0.00000    
     12395 IM1      316      IM1      LPN21    LPD     -0.474000       0.00000          -1   0.00000       0.00000    
     12396 IM1      317      IM1      C1       CD33G     1.64330       11.6110           0  -1.08100       1.00000    
     12397 IM1      317      IM1      DC1      DRUD     -1.80430      0.400000           0   0.00000       0.00000    
     12398 IM1      317      IM1      H1       HDA3A    0.940000E-01   1.00800           0   0.00000       0.00000    
     12399 IM1      317      IM1      H2       HDA3A    0.940000E-01   1.00800           0   0.00000       0.00000    
     12400 IM1      317      IM1      H3       HDA3A    0.940000E-01   1.00800           0   0.00000       0.00000    
     12401 IM1      317      IM1      N1       ND2R5A    1.92920       13.6070           0  -1.06300       1.30000    
     12402 IM1      317      IM1      DN1      DRUD     -1.78920      0.400000           0   0.00000       0.00000    
     12403 IM1      317      IM1      C2       CD2R5A    1.66810       11.6110           0  -1.37800       1.30000    
     12404 IM1      317      IM1      DC2      DRUD     -2.03710      0.400000           0   0.00000       0.00000    
     12405 IM1      317      IM1      H4       HDR5A    0.150000       1.00800           0   0.00000       0.00000    
     12406 IM1      317      IM1      C3       CD2R5A    2.22510       11.6110           0  -1.37800       1.30000    
     12407 IM1      317      IM1      DC3      DRUD     -2.03710      0.400000           0   0.00000       0.00000    
     12408 IM1      317      IM1      H5       HDR5A    0.530000E-01   1.00800           0   0.00000       0.00000    
     12409 IM1      317      IM1      C4       CD2R5B    1.73480       11.6110           0 -0.868000       1.30000    
     12410 IM1      317      IM1      DC4      DRUD     -1.61680      0.400000           0   0.00000       0.00000    
     12411 IM1      317      IM1      H6       HDR5B    0.730000E-01   1.00800           0   0.00000       0.00000    
     12412 IM1      317      IM1      N2       ND2R5B    1.59050       13.6070           0 -0.840000       1.00000    
     12413 IM1      317      IM1      DN2      DRUD     -1.59050      0.400000           0   0.00000       0.00000    
     12414 IM1      317      IM1      H7       DUMH      0.00000       1.00800           0   0.00000       0.00000    
     12415 IM1      317      IM1      LPN21    LPD     -0.474000       0.00000          -1   0.00000       0.00000    
     12416 IM1      318      IM1      C1       CD33G     1.64330       11.6110           0  -1.08100       1.00000    
     12417 IM1      318      IM1      DC1      DRUD     -1.80430      0.400000           0   0.00000       0.00000    
     12418 IM1      318      IM1      H1       HDA3A    0.940000E-01   1.00800           0   0.00000       0.00000    
     12419 IM1      318      IM1      H2       HDA3A    0.940000E-01   1.00800           0   0.00000       0.00000    
     12420 IM1      318      IM1      H3       HDA3A    0.940000E-01   1.00800           0   0.00000       0.00000    
     12421 IM1      318      IM1      N1       ND2R5A    1.92920       13.6070           0  -1.06300       1.30000    
     12422 IM1      318      IM1      DN1      DRUD     -1.78920      0.400000           0   0.00000       0.00000    
     12423 IM1      318      IM1      C2       CD2R5A    1.66810       11.6110           0  -1.37800       1.30000    
     12424 IM1      318      IM1      DC2      DRUD     -2.03710      0.400000           0   0.00000       0.00000    
     12425 IM1      318      IM1      H4       HDR5A    0.150000       1.00800           0   0.00000       0.00000    
     12426 IM1      318      IM1      C3       CD2R5A    2.22510       11.6110           0  -1.37800       1.30000    
     12427 IM1      318      IM1      DC3      DRUD     -2.03710      0.400000           0   0.00000       0.00000    
     12428 IM1      318      IM1      H5       HDR5A    0.530000E-01   1.00800           0   0.00000       0.00000    
     12429 IM1      318      IM1      C4       CD2R5B    1.73480       11.6110           0 -0.868000       1.30000    
     12430 IM1      318      IM1      DC4      DRUD     -1.61680      0.400000           0   0.00000       0.00000    
     12431 IM1      318      IM1      H6       HDR5B    0.730000E-01   1.00800           0   0.00000       0.00000    
     12432 IM1      318      IM1      N2       ND2R5B    1.59050       13.6070           0 -0.840000       1.00000    
     12433 IM1      318      IM1      DN2      DRUD     -1.59050      0.400000           0   0.00000       0.00000    
     12434 IM1      318      IM1      H7       DUMH      0.00000       1.00800           0   0.00000       0.00000    
     12435 IM1      318      IM1      LPN21    LPD     -0.474000       0.00000          -1   0.00000       0.00000    
     12436 IM1      319      IM1      C1       CD33G     1.64330       11.6110           0  -1.08100       1.00000    
     12437 IM1      319      IM1      DC1      DRUD     -1.80430      0.400000           0   0.00000       0.00000    
     12438 IM1      319      IM1      H1       HDA3A    0.940000E-01   1.00800           0   0.00000       0.00000    
     12439 IM1      319      IM1      H2       HDA3A    0.940000E-01   1.00800           0   0.00000       0.00000    
     12440 IM1      319      IM1      H3       HDA3A    0.940000E-01   1.00800           0   0.00000       0.00000    
     12441 IM1      319      IM1      N1       ND2R5A    1.92920       13.6070           0  -1.06300       1.30000    
     12442 IM1      319      IM1      DN1      DRUD     -1.78920      0.400000           0   0.00000       0.00000    
     12443 IM1      319      IM1      C2       CD2R5A    1.66810       11.6110           0  -1.37800       1.30000    
     12444 IM1      319      IM1      DC2      DRUD     -2.03710      0.400000           0   0.00000       0.00000    
     12445 IM1      319      IM1      H4       HDR5A    0.150000       1.00800           0   0.00000       0.00000    
     12446 IM1      319      IM1      C3       CD2R5A    2.22510       11.6110           0  -1.37800       1.30000    
     12447 IM1      319      IM1      DC3      DRUD     -2.03710      0.400000           0   0.00000       0.00000    
     12448 IM1      319      IM1      H5       HDR5A    0.530000E-01   1.00800           0   0.00000       0.00000    
     12449 IM1      319      IM1      C4       CD2R5B    1.73480       11.6110           0 -0.868000       1.30000    
     12450 IM1      319      IM1      DC4      DRUD     -1.61680      0.400000           0   0.00000       0.00000    
     12451 IM1      319      IM1      H6       HDR5B    0.730000E-01   1.00800           0   0.00000       0.00000    
     12452 IM1      319      IM1      N2       ND2R5B    1.59050       13.6070           0 -0.840000       1.00000    
     12453 IM1      319      IM1      DN2      DRUD     -1.59050      0.400000           0   0.00000       0.00000    
     12454 IM1      319      IM1      H7       DUMH      0.00000       1.00800           0   0.00000       0.00000    
     12455 IM1      319      IM1      LPN21    LPD     -0.474000       0.00000          -1   0.00000       0.00000    
     12456 IM1      320      IM1      C1       CD33G     1.64330       11.6110           0  -1.08100       1.00000    
     12457 IM1      320      IM1      DC1      DRUD     -1.80430      0.400000           0   0.00000       0.00000    
     12458 IM1      320      IM1      H1       HDA3A    0.940000E-01   1.00800           0   0.00000       0.00000    
     12459 IM1      320      IM1      H2       HDA3A    0.940000E-01   1.00800           0   0.00000       0.00000    
     12460 IM1      320      IM1      H3       HDA3A    0.940000E-01   1.00800           0   0.00000       0.00000    
     12461 IM1      320      IM1      N1       ND2R5A    1.92920       13.6070           0  -1.06300       1.30000    
     12462 IM1      320      IM1      DN1      DRUD     -1.78920      0.400000           0   0.00000       0.00000    
     12463 IM1      320      IM1      C2       CD2R5A    1.66810       11.6110           0  -1.37800       1.30000    
     12464 IM1      320      IM1      DC2      DRUD     -2.03710      0.400000           0   0.00000       0.00000    
     12465 IM1      320      IM1      H4       HDR5A    0.150000       1.00800           0   0.00000       0.00000    
     12466 IM1      320      IM1      C3       CD2R5A    2.22510       11.6110           0  -1.37800       1.30000    
     12467 IM1      320      IM1      DC3      DRUD     -2.03710      0.400000           0   0.00000       0.00000    
     12468 IM1      320      IM1      H5       HDR5A    0.530000E-01   1.00800           0   0.00000       0.00000    
     12469 IM1      320      IM1      C4       CD2R5B    1.73480       11.6110           0 -0.868000       1.30000    
     12470 IM1      320      IM1      DC4      DRUD     -1.61680      0.400000           0   0.00000       0.00000    
     12471 IM1      320      IM1      H6       HDR5B    0.730000E-01   1.00800           0   0.00000       0.00000    
     12472 IM1      320      IM1      N2       ND2R5B    1.59050       13.6070           0 -0.840000       1.00000    
     12473 IM1      320      IM1      DN2      DRUD     -1.59050      0.400000           0   0.00000       0.00000    
     12474 IM1      320      IM1      H7       DUMH      0.00000       1.00800           0   0.00000       0.00000    
     12475 IM1      320      IM1      LPN21    LPD     -0.474000       0.00000          -1   0.00000       0.00000    
     12476 IM1      321      IM1      C1       CD33G     1.64330       11.6110           0  -1.08100       1.00000    
     12477 IM1      321      IM1      DC1      DRUD     -1.80430      0.400000           0   0.00000       0.00000    
     12478 IM1      321      IM1      H1       HDA3A    0.940000E-01   1.00800           0   0.00000       0.00000    
     12479 IM1      321      IM1      H2       HDA3A    0.940000E-01   1.00800           0   0.00000       0.00000    
     12480 IM1      321      IM1      H3       HDA3A    0.940000E-01   1.00800           0   0.00000       0.00000    
     12481 IM1      321      IM1      N1       ND2R5A    1.92920       13.6070           0  -1.06300       1.30000    
     12482 IM1      321      IM1      DN1      DRUD     -1.78920      0.400000           0   0.00000       0.00000    
     12483 IM1      321      IM1      C2       CD2R5A    1.66810       11.6110           0  -1.37800       1.30000    
     12484 IM1      321      IM1      DC2      DRUD     -2.03710      0.400000           0   0.00000       0.00000    
     12485 IM1      321      IM1      H4       HDR5A    0.150000       1.00800           0   0.00000       0.00000    
     12486 IM1      321      IM1      C3       CD2R5A    2.22510       11.6110           0  -1.37800       1.30000    
     12487 IM1      321      IM1      DC3      DRUD     -2.03710      0.400000           0   0.00000       0.00000    
     12488 IM1      321      IM1      H5       HDR5A    0.530000E-01   1.00800           0   0.00000       0.00000    
     12489 IM1      321      IM1      C4       CD2R5B    1.73480       11.6110           0 -0.868000       1.30000    
     12490 IM1      321      IM1      DC4      DRUD     -1.61680      0.400000           0   0.00000       0.00000    
     12491 IM1      321      IM1      H6       HDR5B    0.730000E-01   1.00800           0   0.00000       0.00000    
     12492 IM1      321      IM1      N2       ND2R5B    1.59050       13.6070           0 -0.840000       1.00000    
     12493 IM1      321      IM1      DN2      DRUD     -1.59050      0.400000           0   0.00000       0.00000    
     12494 IM1      321      IM1      H7       DUMH      0.00000       1.00800           0   0.00000       0.00000    
     12495 IM1      321      IM1      LPN21    LPD     -0.474000       0.00000          -1   0.00000       0.00000    
     12496 IM1      322      IM1      C1       CD33G     1.64330       11.6110           0  -1.08100       1.00000    
     12497 IM1      322      IM1      DC1      DRUD     -1.80430      0.400000           0   0.00000       0.00000    
     12498 IM1      322      IM1      H1       HDA3A    0.940000E-01   1.00800           0   0.00000       0.00000    
     12499 IM1      322      IM1      H2       HDA3A    0.940000E-01   1.00800           0   0.00000       0.00000    
     12500 IM1      322      IM1      H3       HDA3A    0.940000E-01   1.00800           0   0.00000       0.00000    
     12501 IM1      322      IM1      N1       ND2R5A    1.92920       13.6070           0  -1.06300       1.30000    
     12502 IM1      322      IM1      DN1      DRUD     -1.78920      0.400000           0   0.00000       0.00000    
     12503 IM1      322      IM1      C2       CD2R5A    1.66810       11.6110           0  -1.37800       1.30000    
     12504 IM1      322      IM1      DC2      DRUD     -2.03710      0.400000           0   0.00000       0.00000    
     12505 IM1      322      IM1      H4       HDR5A    0.150000       1.00800           0   0.00000       0.00000    
     12506 IM1      322      IM1      C3       CD2R5A    2.22510       11.6110           0  -1.37800       1.30000    
     12507 IM1      322      IM1      DC3      DRUD     -2.03710      0.400000           0   0.00000       0.00000    
     12508 IM1      322      IM1      H5       HDR5A    0.530000E-01   1.00800           0   0.00000       0.00000    
     12509 IM1      322      IM1      C4       CD2R5B    1.73480       11.6110           0 -0.868000       1.30000    
     12510 IM1      322      IM1      DC4      DRUD     -1.61680      0.400000           0   0.00000       0.00000    
     12511 IM1      322      IM1      H6       HDR5B    0.730000E-01   1.00800           0   0.00000       0.00000    
     12512 IM1      322      IM1      N2       ND2R5B    1.59050       13.6070           0 -0.840000       1.00000    
     12513 IM1      322      IM1      DN2      DRUD     -1.59050      0.400000           0   0.00000       0.00000    
     12514 IM1      322      IM1      H7       DUMH      0.00000       1.00800           0   0.00000       0.00000    
     12515 IM1      322      IM1      LPN21    LPD     -0.474000       0.00000          -1   0.00000       0.00000    
     12516 IM1      323      IM1      C1       CD33G     1.64330       11.6110           0  -1.08100       1.00000    
     12517 IM1      323      IM1      DC1      DRUD     -1.80430      0.400000           0   0.00000       0.00000    
     12518 IM1      323      IM1      H1       HDA3A    0.940000E-01   1.00800           0   0.00000       0.00000    
     12519 IM1      323      IM1      H2       HDA3A    0.940000E-01   1.00800           0   0.00000       0.00000    
     12520 IM1      323      IM1      H3       HDA3A    0.940000E-01   1.00800           0   0.00000       0.00000    
     12521 IM1      323      IM1      N1       ND2R5A    1.92920       13.6070           0  -1.06300       1.30000    
     12522 IM1      323      IM1      DN1      DRUD     -1.78920      0.400000           0   0.00000       0.00000    
     12523 IM1      323      IM1      C2       CD2R5A    1.66810       11.6110           0  -1.37800       1.30000    
     12524 IM1      323      IM1      DC2      DRUD     -2.03710      0.400000           0   0.00000       0.00000    
     12525 IM1      323      IM1      H4       HDR5A    0.150000       1.00800           0   0.00000       0.00000    
     12526 IM1      323      IM1      C3       CD2R5A    2.22510       11.6110           0  -1.37800       1.30000    
     12527 IM1      323      IM1      DC3      DRUD     -2.03710      0.400000           0   0.00000       0.00000    
     12528 IM1      323      IM1      H5       HDR5A    0.530000E-01   1.00800           0   0.00000       0.00000    
     12529 IM1      323      IM1      C4       CD2R5B    1.73480       11.6110           0 -0.868000       1.30000    
     12530 IM1      323      IM1      DC4      DRUD     -1.61680      0.400000           0   0.00000       0.00000    
     12531 IM1      323      IM1      H6       HDR5B    0.730000E-01   1.00800           0   0.00000       0.00000    
     12532 IM1      323      IM1      N2       ND2R5B    1.59050       13.6070           0 -0.840000       1.00000    
     12533 IM1      323      IM1      DN2      DRUD     -1.59050      0.400000           0   0.00000       0.00000    
     12534 IM1      323      IM1      H7       DUMH      0.00000       1.00800           0   0.00000       0.00000    
     12535 IM1      323      IM1      LPN21    LPD     -0.474000       0.00000          -1   0.00000       0.00000    
     12536 IM1      324      IM1      C1       CD33G     1.64330       11.6110           0  -1.08100       1.00000    
     12537 IM1      324      IM1      DC1      DRUD     -1.80430      0.400000           0   0.00000       0.00000    
     12538 IM1      324      IM1      H1       HDA3A    0.940000E-01   1.00800           0   0.00000       0.00000    
     12539 IM1      324      IM1      H2       HDA3A    0.940000E-01   1.00800           0   0.00000       0.00000    
     12540 IM1      324      IM1      H3       HDA3A    0.940000E-01   1.00800           0   0.00000       0.00000    
     12541 IM1      324      IM1      N1       ND2R5A    1.92920       13.6070           0  -1.06300       1.30000    
     12542 IM1      324      IM1      DN1      DRUD     -1.78920      0.400000           0   0.00000       0.00000    
     12543 IM1      324      IM1      C2       CD2R5A    1.66810       11.6110           0  -1.37800       1.30000    
     12544 IM1      324      IM1      DC2      DRUD     -2.03710      0.400000           0   0.00000       0.00000    
     12545 IM1      324      IM1      H4       HDR5A    0.150000       1.00800           0   0.00000       0.00000    
     12546 IM1      324      IM1      C3       CD2R5A    2.22510       11.6110           0  -1.37800       1.30000    
     12547 IM1      324      IM1      DC3      DRUD     -2.03710      0.400000           0   0.00000       0.00000    
     12548 IM1      324      IM1      H5       HDR5A    0.530000E-01   1.00800           0   0.00000       0.00000    
     12549 IM1      324      IM1      C4       CD2R5B    1.73480       11.6110           0 -0.868000       1.30000    
     12550 IM1      324      IM1      DC4      DRUD     -1.61680      0.400000           0   0.00000       0.00000    
     12551 IM1      324      IM1      H6       HDR5B    0.730000E-01   1.00800           0   0.00000       0.00000    
     12552 IM1      324      IM1      N2       ND2R5B    1.59050       13.6070           0 -0.840000       1.00000    
     12553 IM1      324      IM1      DN2      DRUD     -1.59050      0.400000           0   0.00000       0.00000    
     12554 IM1      324      IM1      H7       DUMH      0.00000       1.00800           0   0.00000       0.00000    
     12555 IM1      324      IM1      LPN21    LPD     -0.474000       0.00000          -1   0.00000       0.00000    
     12556 IM1      325      IM1      C1       CD33G     1.64330       11.6110           0  -1.08100       1.00000    
     12557 IM1      325      IM1      DC1      DRUD     -1.80430      0.400000           0   0.00000       0.00000    
     12558 IM1      325      IM1      H1       HDA3A    0.940000E-01   1.00800           0   0.00000       0.00000    
     12559 IM1      325      IM1      H2       HDA3A    0.940000E-01   1.00800           0   0.00000       0.00000    
     12560 IM1      325      IM1      H3       HDA3A    0.940000E-01   1.00800           0   0.00000       0.00000    
     12561 IM1      325      IM1      N1       ND2R5A    1.92920       13.6070           0  -1.06300       1.30000    
     12562 IM1      325      IM1      DN1      DRUD     -1.78920      0.400000           0   0.00000       0.00000    
     12563 IM1      325      IM1      C2       CD2R5A    1.66810       11.6110           0  -1.37800       1.30000    
     12564 IM1      325      IM1      DC2      DRUD     -2.03710      0.400000           0   0.00000       0.00000    
     12565 IM1      325      IM1      H4       HDR5A    0.150000       1.00800           0   0.00000       0.00000    
     12566 IM1      325      IM1      C3       CD2R5A    2.22510       11.6110           0  -1.37800       1.30000    
     12567 IM1      325      IM1      DC3      DRUD     -2.03710      0.400000           0   0.00000       0.00000    
     12568 IM1      325      IM1      H5       HDR5A    0.530000E-01   1.00800           0   0.00000       0.00000    
     12569 IM1      325      IM1      C4       CD2R5B    1.73480       11.6110           0 -0.868000       1.30000    
     12570 IM1      325      IM1      DC4      DRUD     -1.61680      0.400000           0   0.00000       0.00000    
     12571 IM1      325      IM1      H6       HDR5B    0.730000E-01   1.00800           0   0.00000       0.00000    
     12572 IM1      325      IM1      N2       ND2R5B    1.59050       13.6070           0 -0.840000       1.00000    
     12573 IM1      325      IM1      DN2      DRUD     -1.59050      0.400000           0   0.00000       0.00000    
     12574 IM1      325      IM1      H7       DUMH      0.00000       1.00800           0   0.00000       0.00000    
     12575 IM1      325      IM1      LPN21    LPD     -0.474000       0.00000          -1   0.00000       0.00000    
     12576 IM1      326      IM1      C1       CD33G     1.64330       11.6110           0  -1.08100       1.00000    
     12577 IM1      326      IM1      DC1      DRUD     -1.80430      0.400000           0   0.00000       0.00000    
     12578 IM1      326      IM1      H1       HDA3A    0.940000E-01   1.00800           0   0.00000       0.00000    
     12579 IM1      326      IM1      H2       HDA3A    0.940000E-01   1.00800           0   0.00000       0.00000    
     12580 IM1      326      IM1      H3       HDA3A    0.940000E-01   1.00800           0   0.00000       0.00000    
     12581 IM1      326      IM1      N1       ND2R5A    1.92920       13.6070           0  -1.06300       1.30000    
     12582 IM1      326      IM1      DN1      DRUD     -1.78920      0.400000           0   0.00000       0.00000    
     12583 IM1      326      IM1      C2       CD2R5A    1.66810       11.6110           0  -1.37800       1.30000    
     12584 IM1      326      IM1      DC2      DRUD     -2.03710      0.400000           0   0.00000       0.00000    
     12585 IM1      326      IM1      H4       HDR5A    0.150000       1.00800           0   0.00000       0.00000    
     12586 IM1      326      IM1      C3       CD2R5A    2.22510       11.6110           0  -1.37800       1.30000    
     12587 IM1      326      IM1      DC3      DRUD     -2.03710      0.400000           0   0.00000       0.00000    
     12588 IM1      326      IM1      H5       HDR5A    0.530000E-01   1.00800           0   0.00000       0.00000    
     12589 IM1      326      IM1      C4       CD2R5B    1.73480       11.6110           0 -0.868000       1.30000    
     12590 IM1      326      IM1      DC4      DRUD     -1.61680      0.400000           0   0.00000       0.00000    
     12591 IM1      326      IM1      H6       HDR5B    0.730000E-01   1.00800           0   0.00000       0.00000    
     12592 IM1      326      IM1      N2       ND2R5B    1.59050       13.6070           0 -0.840000       1.00000    
     12593 IM1      326      IM1      DN2      DRUD     -1.59050      0.400000           0   0.00000       0.00000    
     12594 IM1      326      IM1      H7       DUMH      0.00000       1.00800           0   0.00000       0.00000    
     12595 IM1      326      IM1      LPN21    LPD     -0.474000       0.00000          -1   0.00000       0.00000    
     12596 IM1      327      IM1      C1       CD33G     1.64330       11.6110           0  -1.08100       1.00000    
     12597 IM1      327      IM1      DC1      DRUD     -1.80430      0.400000           0   0.00000       0.00000    
     12598 IM1      327      IM1      H1       HDA3A    0.940000E-01   1.00800           0   0.00000       0.00000    
     12599 IM1      327      IM1      H2       HDA3A    0.940000E-01   1.00800           0   0.00000       0.00000    
     12600 IM1      327      IM1      H3       HDA3A    0.940000E-01   1.00800           0   0.00000       0.00000    
     12601 IM1      327      IM1      N1       ND2R5A    1.92920       13.6070           0  -1.06300       1.30000    
     12602 IM1      327      IM1      DN1      DRUD     -1.78920      0.400000           0   0.00000       0.00000    
     12603 IM1      327      IM1      C2       CD2R5A    1.66810       11.6110           0  -1.37800       1.30000    
     12604 IM1      327      IM1      DC2      DRUD     -2.03710      0.400000           0   0.00000       0.00000    
     12605 IM1      327      IM1      H4       HDR5A    0.150000       1.00800           0   0.00000       0.00000    
     12606 IM1      327      IM1      C3       CD2R5A    2.22510       11.6110           0  -1.37800       1.30000    
     12607 IM1      327      IM1      DC3      DRUD     -2.03710      0.400000           0   0.00000       0.00000    
     12608 IM1      327      IM1      H5       HDR5A    0.530000E-01   1.00800           0   0.00000       0.00000    
     12609 IM1      327      IM1      C4       CD2R5B    1.73480       11.6110           0 -0.868000       1.30000    
     12610 IM1      327      IM1      DC4      DRUD     -1.61680      0.400000           0   0.00000       0.00000    
     12611 IM1      327      IM1      H6       HDR5B    0.730000E-01   1.00800           0   0.00000       0.00000    
     12612 IM1      327      IM1      N2       ND2R5B    1.59050       13.6070           0 -0.840000       1.00000    
     12613 IM1      327      IM1      DN2      DRUD     -1.59050      0.400000           0   0.00000       0.00000    
     12614 IM1      327      IM1      H7       DUMH      0.00000       1.00800           0   0.00000       0.00000    
     12615 IM1      327      IM1      LPN21    LPD     -0.474000       0.00000          -1   0.00000       0.00000    
     12616 IM1      328      IM1      C1       CD33G     1.64330       11.6110           0  -1.08100       1.00000    
     12617 IM1      328      IM1      DC1      DRUD     -1.80430      0.400000           0   0.00000       0.00000    
     12618 IM1      328      IM1      H1       HDA3A    0.940000E-01   1.00800           0   0.00000       0.00000    
     12619 IM1      328      IM1      H2       HDA3A    0.940000E-01   1.00800           0   0.00000       0.00000    
     12620 IM1      328      IM1      H3       HDA3A    0.940000E-01   1.00800           0   0.00000       0.00000    
     12621 IM1      328      IM1      N1       ND2R5A    1.92920       13.6070           0  -1.06300       1.30000    
     12622 IM1      328      IM1      DN1      DRUD     -1.78920      0.400000           0   0.00000       0.00000    
     12623 IM1      328      IM1      C2       CD2R5A    1.66810       11.6110           0  -1.37800       1.30000    
     12624 IM1      328      IM1      DC2      DRUD     -2.03710      0.400000           0   0.00000       0.00000    
     12625 IM1      328      IM1      H4       HDR5A    0.150000       1.00800           0   0.00000       0.00000    
     12626 IM1      328      IM1      C3       CD2R5A    2.22510       11.6110           0  -1.37800       1.30000    
     12627 IM1      328      IM1      DC3      DRUD     -2.03710      0.400000           0   0.00000       0.00000    
     12628 IM1      328      IM1      H5       HDR5A    0.530000E-01   1.00800           0   0.00000       0.00000    
     12629 IM1      328      IM1      C4       CD2R5B    1.73480       11.6110           0 -0.868000       1.30000    
     12630 IM1      328      IM1      DC4      DRUD     -1.61680      0.400000           0   0.00000       0.00000    
     12631 IM1      328      IM1      H6       HDR5B    0.730000E-01   1.00800           0   0.00000       0.00000    
     12632 IM1      328      IM1      N2       ND2R5B    1.59050       13.6070           0 -0.840000       1.00000    
     12633 IM1      328      IM1      DN2      DRUD     -1.59050      0.400000           0   0.00000       0.00000    
     12634 IM1      328      IM1      H7       DUMH      0.00000       1.00800           0   0.00000       0.00000    
     12635 IM1      328      IM1      LPN21    LPD     -0.474000       0.00000          -1   0.00000       0.00000    
     12636 IM1      329      IM1      C1       CD33G     1.64330       11.6110           0  -1.08100       1.00000    
     12637 IM1      329      IM1      DC1      DRUD     -1.80430      0.400000           0   0.00000       0.00000    
     12638 IM1      329      IM1      H1       HDA3A    0.940000E-01   1.00800           0   0.00000       0.00000    
     12639 IM1      329      IM1      H2       HDA3A    0.940000E-01   1.00800           0   0.00000       0.00000    
     12640 IM1      329      IM1      H3       HDA3A    0.940000E-01   1.00800           0   0.00000       0.00000    
     12641 IM1      329      IM1      N1       ND2R5A    1.92920       13.6070           0  -1.06300       1.30000    
     12642 IM1      329      IM1      DN1      DRUD     -1.78920      0.400000           0   0.00000       0.00000    
     12643 IM1      329      IM1      C2       CD2R5A    1.66810       11.6110           0  -1.37800       1.30000    
     12644 IM1      329      IM1      DC2      DRUD     -2.03710      0.400000           0   0.00000       0.00000    
     12645 IM1      329      IM1      H4       HDR5A    0.150000       1.00800           0   0.00000       0.00000    
     12646 IM1      329      IM1      C3       CD2R5A    2.22510       11.6110           0  -1.37800       1.30000    
     12647 IM1      329      IM1      DC3      DRUD     -2.03710      0.400000           0   0.00000       0.00000    
     12648 IM1      329      IM1      H5       HDR5A    0.530000E-01   1.00800           0   0.00000       0.00000    
     12649 IM1      329      IM1      C4       CD2R5B    1.73480       11.6110           0 -0.868000       1.30000    
     12650 IM1      329      IM1      DC4      DRUD     -1.61680      0.400000           0   0.00000       0.00000    
     12651 IM1      329      IM1      H6       HDR5B    0.730000E-01   1.00800           0   0.00000       0.00000    
     12652 IM1      329      IM1      N2       ND2R5B    1.59050       13.6070           0 -0.840000       1.00000    
     12653 IM1      329      IM1      DN2      DRUD     -1.59050      0.400000           0   0.00000       0.00000    
     12654 IM1      329      IM1      H7       DUMH      0.00000       1.00800           0   0.00000       0.00000    
     12655 IM1      329      IM1      LPN21    LPD     -0.474000       0.00000          -1   0.00000       0.00000    
     12656 IM1      330      IM1      C1       CD33G     1.64330       11.6110           0  -1.08100       1.00000    
     12657 IM1      330      IM1      DC1      DRUD     -1.80430      0.400000           0   0.00000       0.00000    
     12658 IM1      330      IM1      H1       HDA3A    0.940000E-01   1.00800           0   0.00000       0.00000    
     12659 IM1      330      IM1      H2       HDA3A    0.940000E-01   1.00800           0   0.00000       0.00000    
     12660 IM1      330      IM1      H3       HDA3A    0.940000E-01   1.00800           0   0.00000       0.00000    
     12661 IM1      330      IM1      N1       ND2R5A    1.92920       13.6070           0  -1.06300       1.30000    
     12662 IM1      330      IM1      DN1      DRUD     -1.78920      0.400000           0   0.00000       0.00000    
     12663 IM1      330      IM1      C2       CD2R5A    1.66810       11.6110           0  -1.37800       1.30000    
     12664 IM1      330      IM1      DC2      DRUD     -2.03710      0.400000           0   0.00000       0.00000    
     12665 IM1      330      IM1      H4       HDR5A    0.150000       1.00800           0   0.00000       0.00000    
     12666 IM1      330      IM1      C3       CD2R5A    2.22510       11.6110           0  -1.37800       1.30000    
     12667 IM1      330      IM1      DC3      DRUD     -2.03710      0.400000           0   0.00000       0.00000    
     12668 IM1      330      IM1      H5       HDR5A    0.530000E-01   1.00800           0   0.00000       0.00000    
     12669 IM1      330      IM1      C4       CD2R5B    1.73480       11.6110           0 -0.868000       1.30000    
     12670 IM1      330      IM1      DC4      DRUD     -1.61680      0.400000           0   0.00000       0.00000    
     12671 IM1      330      IM1      H6       HDR5B    0.730000E-01   1.00800           0   0.00000       0.00000    
     12672 IM1      330      IM1      N2       ND2R5B    1.59050       13.6070           0 -0.840000       1.00000    
     12673 IM1      330      IM1      DN2      DRUD     -1.59050      0.400000           0   0.00000       0.00000    
     12674 IM1      330      IM1      H7       DUMH      0.00000       1.00800           0   0.00000       0.00000    
     12675 IM1      330      IM1      LPN21    LPD     -0.474000       0.00000          -1   0.00000       0.00000    
     12676 IM1      331      IM1      C1       CD33G     1.64330       11.6110           0  -1.08100       1.00000    
     12677 IM1      331      IM1      DC1      DRUD     -1.80430      0.400000           0   0.00000       0.00000    
     12678 IM1      331      IM1      H1       HDA3A    0.940000E-01   1.00800           0   0.00000       0.00000    
     12679 IM1      331      IM1      H2       HDA3A    0.940000E-01   1.00800           0   0.00000       0.00000    
     12680 IM1      331      IM1      H3       HDA3A    0.940000E-01   1.00800           0   0.00000       0.00000    
     12681 IM1      331      IM1      N1       ND2R5A    1.92920       13.6070           0  -1.06300       1.30000    
     12682 IM1      331      IM1      DN1      DRUD     -1.78920      0.400000           0   0.00000       0.00000    
     12683 IM1      331      IM1      C2       CD2R5A    1.66810       11.6110           0  -1.37800       1.30000    
     12684 IM1      331      IM1      DC2      DRUD     -2.03710      0.400000           0   0.00000       0.00000    
     12685 IM1      331      IM1      H4       HDR5A    0.150000       1.00800           0   0.00000       0.00000    
     12686 IM1      331      IM1      C3       CD2R5A    2.22510       11.6110           0  -1.37800       1.30000    
     12687 IM1      331      IM1      DC3      DRUD     -2.03710      0.400000           0   0.00000       0.00000    
     12688 IM1      331      IM1      H5       HDR5A    0.530000E-01   1.00800           0   0.00000       0.00000    
     12689 IM1      331      IM1      C4       CD2R5B    1.73480       11.6110           0 -0.868000       1.30000    
     12690 IM1      331      IM1      DC4      DRUD     -1.61680      0.400000           0   0.00000       0.00000    
     12691 IM1      331      IM1      H6       HDR5B    0.730000E-01   1.00800           0   0.00000       0.00000    
     12692 IM1      331      IM1      N2       ND2R5B    1.59050       13.6070           0 -0.840000       1.00000    
     12693 IM1      331      IM1      DN2      DRUD     -1.59050      0.400000           0   0.00000       0.00000    
     12694 IM1      331      IM1      H7       DUMH      0.00000       1.00800           0   0.00000       0.00000    
     12695 IM1      331      IM1      LPN21    LPD     -0.474000       0.00000          -1   0.00000       0.00000    
     12696 IM1      332      IM1      C1       CD33G     1.64330       11.6110           0  -1.08100       1.00000    
     12697 IM1      332      IM1      DC1      DRUD     -1.80430      0.400000           0   0.00000       0.00000    
     12698 IM1      332      IM1      H1       HDA3A    0.940000E-01   1.00800           0   0.00000       0.00000    
     12699 IM1      332      IM1      H2       HDA3A    0.940000E-01   1.00800           0   0.00000       0.00000    
     12700 IM1      332      IM1      H3       HDA3A    0.940000E-01   1.00800           0   0.00000       0.00000    
     12701 IM1      332      IM1      N1       ND2R5A    1.92920       13.6070           0  -1.06300       1.30000    
     12702 IM1      332      IM1      DN1      DRUD     -1.78920      0.400000           0   0.00000       0.00000    
     12703 IM1      332      IM1      C2       CD2R5A    1.66810       11.6110           0  -1.37800       1.30000    
     12704 IM1      332      IM1      DC2      DRUD     -2.03710      0.400000           0   0.00000       0.00000    
     12705 IM1      332      IM1      H4       HDR5A    0.150000       1.00800           0   0.00000       0.00000    
     12706 IM1      332      IM1      C3       CD2R5A    2.22510       11.6110           0  -1.37800       1.30000    
     12707 IM1      332      IM1      DC3      DRUD     -2.03710      0.400000           0   0.00000       0.00000    
     12708 IM1      332      IM1      H5       HDR5A    0.530000E-01   1.00800           0   0.00000       0.00000    
     12709 IM1      332      IM1      C4       CD2R5B    1.73480       11.6110           0 -0.868000       1.30000    
     12710 IM1      332      IM1      DC4      DRUD     -1.61680      0.400000           0   0.00000       0.00000    
     12711 IM1      332      IM1      H6       HDR5B    0.730000E-01   1.00800           0   0.00000       0.00000    
     12712 IM1      332      IM1      N2       ND2R5B    1.59050       13.6070           0 -0.840000       1.00000    
     12713 IM1      332      IM1      DN2      DRUD     -1.59050      0.400000           0   0.00000       0.00000    
     12714 IM1      332      IM1      H7       DUMH      0.00000       1.00800           0   0.00000       0.00000    
     12715 IM1      332      IM1      LPN21    LPD     -0.474000       0.00000          -1   0.00000       0.00000    
     12716 IM1      333      IM1      C1       CD33G     1.64330       11.6110           0  -1.08100       1.00000    
     12717 IM1      333      IM1      DC1      DRUD     -1.80430      0.400000           0   0.00000       0.00000    
     12718 IM1      333      IM1      H1       HDA3A    0.940000E-01   1.00800           0   0.00000       0.00000    
     12719 IM1      333      IM1      H2       HDA3A    0.940000E-01   1.00800           0   0.00000       0.00000    
     12720 IM1      333      IM1      H3       HDA3A    0.940000E-01   1.00800           0   0.00000       0.00000    
     12721 IM1      333      IM1      N1       ND2R5A    1.92920       13.6070           0  -1.06300       1.30000    
     12722 IM1      333      IM1      DN1      DRUD     -1.78920      0.400000           0   0.00000       0.00000    
     12723 IM1      333      IM1      C2       CD2R5A    1.66810       11.6110           0  -1.37800       1.30000    
     12724 IM1      333      IM1      DC2      DRUD     -2.03710      0.400000           0   0.00000       0.00000    
     12725 IM1      333      IM1      H4       HDR5A    0.150000       1.00800           0   0.00000       0.00000    
     12726 IM1      333      IM1      C3       CD2R5A    2.22510       11.6110           0  -1.37800       1.30000    
     12727 IM1      333      IM1      DC3      DRUD     -2.03710      0.400000           0   0.00000       0.00000    
     12728 IM1      333      IM1      H5       HDR5A    0.530000E-01   1.00800           0   0.00000       0.00000    
     12729 IM1      333      IM1      C4       CD2R5B    1.73480       11.6110           0 -0.868000       1.30000    
     12730 IM1      333      IM1      DC4      DRUD     -1.61680      0.400000           0   0.00000       0.00000    
     12731 IM1      333      IM1      H6       HDR5B    0.730000E-01   1.00800           0   0.00000       0.00000    
     12732 IM1      333      IM1      N2       ND2R5B    1.59050       13.6070           0 -0.840000       1.00000    
     12733 IM1      333      IM1      DN2      DRUD     -1.59050      0.400000           0   0.00000       0.00000    
     12734 IM1      333      IM1      H7       DUMH      0.00000       1.00800           0   0.00000       0.00000    
     12735 IM1      333      IM1      LPN21    LPD     -0.474000       0.00000          -1   0.00000       0.00000    
     12736 IM1      334      IM1      C1       CD33G     1.64330       11.6110           0  -1.08100       1.00000    
     12737 IM1      334      IM1      DC1      DRUD     -1.80430      0.400000           0   0.00000       0.00000    
     12738 IM1      334      IM1      H1       HDA3A    0.940000E-01   1.00800           0   0.00000       0.00000    
     12739 IM1      334      IM1      H2       HDA3A    0.940000E-01   1.00800           0   0.00000       0.00000    
     12740 IM1      334      IM1      H3       HDA3A    0.940000E-01   1.00800           0   0.00000       0.00000    
     12741 IM1      334      IM1      N1       ND2R5A    1.92920       13.6070           0  -1.06300       1.30000    
     12742 IM1      334      IM1      DN1      DRUD     -1.78920      0.400000           0   0.00000       0.00000    
     12743 IM1      334      IM1      C2       CD2R5A    1.66810       11.6110           0  -1.37800       1.30000    
     12744 IM1      334      IM1      DC2      DRUD     -2.03710      0.400000           0   0.00000       0.00000    
     12745 IM1      334      IM1      H4       HDR5A    0.150000       1.00800           0   0.00000       0.00000    
     12746 IM1      334      IM1      C3       CD2R5A    2.22510       11.6110           0  -1.37800       1.30000    
     12747 IM1      334      IM1      DC3      DRUD     -2.03710      0.400000           0   0.00000       0.00000    
     12748 IM1      334      IM1      H5       HDR5A    0.530000E-01   1.00800           0   0.00000       0.00000    
     12749 IM1      334      IM1      C4       CD2R5B    1.73480       11.6110           0 -0.868000       1.30000    
     12750 IM1      334      IM1      DC4      DRUD     -1.61680      0.400000           0   0.00000       0.00000    
     12751 IM1      334      IM1      H6       HDR5B    0.730000E-01   1.00800           0   0.00000       0.00000    
     12752 IM1      334      IM1      N2       ND2R5B    1.59050       13.6070           0 -0.840000       1.00000    
     12753 IM1      334      IM1      DN2      DRUD     -1.59050      0.400000           0   0.00000       0.00000    
     12754 IM1      334      IM1      H7       DUMH      0.00000       1.00800           0   0.00000       0.00000    
     12755 IM1      334      IM1      LPN21    LPD     -0.474000       0.00000          -1   0.00000       0.00000    
     12756 IM1      335      IM1      C1       CD33G     1.64330       11.6110           0  -1.08100       1.00000    
     12757 IM1      335      IM1      DC1      DRUD     -1.80430      0.400000           0   0.00000       0.00000    
     12758 IM1      335      IM1      H1       HDA3A    0.940000E-01   1.00800           0   0.00000       0.00000    
     12759 IM1      335      IM1      H2       HDA3A    0.940000E-01   1.00800           0   0.00000       0.00000    
     12760 IM1      335      IM1      H3       HDA3A    0.940000E-01   1.00800           0   0.00000       0.00000    
     12761 IM1      335      IM1      N1       ND2R5A    1.92920       13.6070           0  -1.06300       1.30000    
     12762 IM1      335      IM1      DN1      DRUD     -1.78920      0.400000           0   0.00000       0.00000    
     12763 IM1      335      IM1      C2       CD2R5A    1.66810       11.6110           0  -1.37800       1.30000    
     12764 IM1      335      IM1      DC2      DRUD     -2.03710      0.400000           0   0.00000       0.00000    
     12765 IM1      335      IM1      H4       HDR5A    0.150000       1.00800           0   0.00000       0.00000    
     12766 IM1      335      IM1      C3       CD2R5A    2.22510       11.6110           0  -1.37800       1.30000    
     12767 IM1      335      IM1      DC3      DRUD     -2.03710      0.400000           0   0.00000       0.00000    
     12768 IM1      335      IM1      H5       HDR5A    0.530000E-01   1.00800           0   0.00000       0.00000    
     12769 IM1      335      IM1      C4       CD2R5B    1.73480       11.6110           0 -0.868000       1.30000    
     12770 IM1      335      IM1      DC4      DRUD     -1.61680      0.400000           0   0.00000       0.00000    
     12771 IM1      335      IM1      H6       HDR5B    0.730000E-01   1.00800           0   0.00000       0.00000    
     12772 IM1      335      IM1      N2       ND2R5B    1.59050       13.6070           0 -0.840000       1.00000    
     12773 IM1      335      IM1      DN2      DRUD     -1.59050      0.400000           0   0.00000       0.00000    
     12774 IM1      335      IM1      H7       DUMH      0.00000       1.00800           0   0.00000       0.00000    
     12775 IM1      335      IM1      LPN21    LPD     -0.474000       0.00000          -1   0.00000       0.00000    
     12776 IM1      336      IM1      C1       CD33G     1.64330       11.6110           0  -1.08100       1.00000    
     12777 IM1      336      IM1      DC1      DRUD     -1.80430      0.400000           0   0.00000       0.00000    
     12778 IM1      336      IM1      H1       HDA3A    0.940000E-01   1.00800           0   0.00000       0.00000    
     12779 IM1      336      IM1      H2       HDA3A    0.940000E-01   1.00800           0   0.00000       0.00000    
     12780 IM1      336      IM1      H3       HDA3A    0.940000E-01   1.00800           0   0.00000       0.00000    
     12781 IM1      336      IM1      N1       ND2R5A    1.92920       13.6070           0  -1.06300       1.30000    
     12782 IM1      336      IM1      DN1      DRUD     -1.78920      0.400000           0   0.00000       0.00000    
     12783 IM1      336      IM1      C2       CD2R5A    1.66810       11.6110           0  -1.37800       1.30000    
     12784 IM1      336      IM1      DC2      DRUD     -2.03710      0.400000           0   0.00000       0.00000    
     12785 IM1      336      IM1      H4       HDR5A    0.150000       1.00800           0   0.00000       0.00000    
     12786 IM1      336      IM1      C3       CD2R5A    2.22510       11.6110           0  -1.37800       1.30000    
     12787 IM1      336      IM1      DC3      DRUD     -2.03710      0.400000           0   0.00000       0.00000    
     12788 IM1      336      IM1      H5       HDR5A    0.530000E-01   1.00800           0   0.00000       0.00000    
     12789 IM1      336      IM1      C4       CD2R5B    1.73480       11.6110           0 -0.868000       1.30000    
     12790 IM1      336      IM1      DC4      DRUD     -1.61680      0.400000           0   0.00000       0.00000    
     12791 IM1      336      IM1      H6       HDR5B    0.730000E-01   1.00800           0   0.00000       0.00000    
     12792 IM1      336      IM1      N2       ND2R5B    1.59050       13.6070           0 -0.840000       1.00000    
     12793 IM1      336      IM1      DN2      DRUD     -1.59050      0.400000           0   0.00000       0.00000    
     12794 IM1      336      IM1      H7       DUMH      0.00000       1.00800           0   0.00000       0.00000    
     12795 IM1      336      IM1      LPN21    LPD     -0.474000       0.00000          -1   0.00000       0.00000    
     12796 IM1      337      IM1      C1       CD33G     1.64330       11.6110           0  -1.08100       1.00000    
     12797 IM1      337      IM1      DC1      DRUD     -1.80430      0.400000           0   0.00000       0.00000    
     12798 IM1      337      IM1      H1       HDA3A    0.940000E-01   1.00800           0   0.00000       0.00000    
     12799 IM1      337      IM1      H2       HDA3A    0.940000E-01   1.00800           0   0.00000       0.00000    
     12800 IM1      337      IM1      H3       HDA3A    0.940000E-01   1.00800           0   0.00000       0.00000    
     12801 IM1      337      IM1      N1       ND2R5A    1.92920       13.6070           0  -1.06300       1.30000    
     12802 IM1      337      IM1      DN1      DRUD     -1.78920      0.400000           0   0.00000       0.00000    
     12803 IM1      337      IM1      C2       CD2R5A    1.66810       11.6110           0  -1.37800       1.30000    
     12804 IM1      337      IM1      DC2      DRUD     -2.03710      0.400000           0   0.00000       0.00000    
     12805 IM1      337      IM1      H4       HDR5A    0.150000       1.00800           0   0.00000       0.00000    
     12806 IM1      337      IM1      C3       CD2R5A    2.22510       11.6110           0  -1.37800       1.30000    
     12807 IM1      337      IM1      DC3      DRUD     -2.03710      0.400000           0   0.00000       0.00000    
     12808 IM1      337      IM1      H5       HDR5A    0.530000E-01   1.00800           0   0.00000       0.00000    
     12809 IM1      337      IM1      C4       CD2R5B    1.73480       11.6110           0 -0.868000       1.30000    
     12810 IM1      337      IM1      DC4      DRUD     -1.61680      0.400000           0   0.00000       0.00000    
     12811 IM1      337      IM1      H6       HDR5B    0.730000E-01   1.00800           0   0.00000       0.00000    
     12812 IM1      337      IM1      N2       ND2R5B    1.59050       13.6070           0 -0.840000       1.00000    
     12813 IM1      337      IM1      DN2      DRUD     -1.59050      0.400000           0   0.00000       0.00000    
     12814 IM1      337      IM1      H7       DUMH      0.00000       1.00800           0   0.00000       0.00000    
     12815 IM1      337      IM1      LPN21    LPD     -0.474000       0.00000          -1   0.00000       0.00000    
     12816 IM1      338      IM1      C1       CD33G     1.64330       11.6110           0  -1.08100       1.00000    
     12817 IM1      338      IM1      DC1      DRUD     -1.80430      0.400000           0   0.00000       0.00000    
     12818 IM1      338      IM1      H1       HDA3A    0.940000E-01   1.00800           0   0.00000       0.00000    
     12819 IM1      338      IM1      H2       HDA3A    0.940000E-01   1.00800           0   0.00000       0.00000    
     12820 IM1      338      IM1      H3       HDA3A    0.940000E-01   1.00800           0   0.00000       0.00000    
     12821 IM1      338      IM1      N1       ND2R5A    1.92920       13.6070           0  -1.06300       1.30000    
     12822 IM1      338      IM1      DN1      DRUD     -1.78920      0.400000           0   0.00000       0.00000    
     12823 IM1      338      IM1      C2       CD2R5A    1.66810       11.6110           0  -1.37800       1.30000    
     12824 IM1      338      IM1      DC2      DRUD     -2.03710      0.400000           0   0.00000       0.00000    
     12825 IM1      338      IM1      H4       HDR5A    0.150000       1.00800           0   0.00000       0.00000    
     12826 IM1      338      IM1      C3       CD2R5A    2.22510       11.6110           0  -1.37800       1.30000    
     12827 IM1      338      IM1      DC3      DRUD     -2.03710      0.400000           0   0.00000       0.00000    
     12828 IM1      338      IM1      H5       HDR5A    0.530000E-01   1.00800           0   0.00000       0.00000    
     12829 IM1      338      IM1      C4       CD2R5B    1.73480       11.6110           0 -0.868000       1.30000    
     12830 IM1      338      IM1      DC4      DRUD     -1.61680      0.400000           0   0.00000       0.00000    
     12831 IM1      338      IM1      H6       HDR5B    0.730000E-01   1.00800           0   0.00000       0.00000    
     12832 IM1      338      IM1      N2       ND2R5B    1.59050       13.6070           0 -0.840000       1.00000    
     12833 IM1      338      IM1      DN2      DRUD     -1.59050      0.400000           0   0.00000       0.00000    
     12834 IM1      338      IM1      H7       DUMH      0.00000       1.00800           0   0.00000       0.00000    
     12835 IM1      338      IM1      LPN21    LPD     -0.474000       0.00000          -1   0.00000       0.00000    
     12836 IM1      339      IM1      C1       CD33G     1.64330       11.6110           0  -1.08100       1.00000    
     12837 IM1      339      IM1      DC1      DRUD     -1.80430      0.400000           0   0.00000       0.00000    
     12838 IM1      339      IM1      H1       HDA3A    0.940000E-01   1.00800           0   0.00000       0.00000    
     12839 IM1      339      IM1      H2       HDA3A    0.940000E-01   1.00800           0   0.00000       0.00000    
     12840 IM1      339      IM1      H3       HDA3A    0.940000E-01   1.00800           0   0.00000       0.00000    
     12841 IM1      339      IM1      N1       ND2R5A    1.92920       13.6070           0  -1.06300       1.30000    
     12842 IM1      339      IM1      DN1      DRUD     -1.78920      0.400000           0   0.00000       0.00000    
     12843 IM1      339      IM1      C2       CD2R5A    1.66810       11.6110           0  -1.37800       1.30000    
     12844 IM1      339      IM1      DC2      DRUD     -2.03710      0.400000           0   0.00000       0.00000    
     12845 IM1      339      IM1      H4       HDR5A    0.150000       1.00800           0   0.00000       0.00000    
     12846 IM1      339      IM1      C3       CD2R5A    2.22510       11.6110           0  -1.37800       1.30000    
     12847 IM1      339      IM1      DC3      DRUD     -2.03710      0.400000           0   0.00000       0.00000    
     12848 IM1      339      IM1      H5       HDR5A    0.530000E-01   1.00800           0   0.00000       0.00000    
     12849 IM1      339      IM1      C4       CD2R5B    1.73480       11.6110           0 -0.868000       1.30000    
     12850 IM1      339      IM1      DC4      DRUD     -1.61680      0.400000           0   0.00000       0.00000    
     12851 IM1      339      IM1      H6       HDR5B    0.730000E-01   1.00800           0   0.00000       0.00000    
     12852 IM1      339      IM1      N2       ND2R5B    1.59050       13.6070           0 -0.840000       1.00000    
     12853 IM1      339      IM1      DN2      DRUD     -1.59050      0.400000           0   0.00000       0.00000    
     12854 IM1      339      IM1      H7       DUMH      0.00000       1.00800           0   0.00000       0.00000    
     12855 IM1      339      IM1      LPN21    LPD     -0.474000       0.00000          -1   0.00000       0.00000    
     12856 IM1      340      IM1      C1       CD33G     1.64330       11.6110           0  -1.08100       1.00000    
     12857 IM1      340      IM1      DC1      DRUD     -1.80430      0.400000           0   0.00000       0.00000    
     12858 IM1      340      IM1      H1       HDA3A    0.940000E-01   1.00800           0   0.00000       0.00000    
     12859 IM1      340      IM1      H2       HDA3A    0.940000E-01   1.00800           0   0.00000       0.00000    
     12860 IM1      340      IM1      H3       HDA3A    0.940000E-01   1.00800           0   0.00000       0.00000    
     12861 IM1      340      IM1      N1       ND2R5A    1.92920       13.6070           0  -1.06300       1.30000    
     12862 IM1      340      IM1      DN1      DRUD     -1.78920      0.400000           0   0.00000       0.00000    
     12863 IM1      340      IM1      C2       CD2R5A    1.66810       11.6110           0  -1.37800       1.30000    
     12864 IM1      340      IM1      DC2      DRUD     -2.03710      0.400000           0   0.00000       0.00000    
     12865 IM1      340      IM1      H4       HDR5A    0.150000       1.00800           0   0.00000       0.00000    
     12866 IM1      340      IM1      C3       CD2R5A    2.22510       11.6110           0  -1.37800       1.30000    
     12867 IM1      340      IM1      DC3      DRUD     -2.03710      0.400000           0   0.00000       0.00000    
     12868 IM1      340      IM1      H5       HDR5A    0.530000E-01   1.00800           0   0.00000       0.00000    
     12869 IM1      340      IM1      C4       CD2R5B    1.73480       11.6110           0 -0.868000       1.30000    
     12870 IM1      340      IM1      DC4      DRUD     -1.61680      0.400000           0   0.00000       0.00000    
     12871 IM1      340      IM1      H6       HDR5B    0.730000E-01   1.00800           0   0.00000       0.00000    
     12872 IM1      340      IM1      N2       ND2R5B    1.59050       13.6070           0 -0.840000       1.00000    
     12873 IM1      340      IM1      DN2      DRUD     -1.59050      0.400000           0   0.00000       0.00000    
     12874 IM1      340      IM1      H7       DUMH      0.00000       1.00800           0   0.00000       0.00000    
     12875 IM1      340      IM1      LPN21    LPD     -0.474000       0.00000          -1   0.00000       0.00000    
     12876 IM1      341      IM1      C1       CD33G     1.64330       11.6110           0  -1.08100       1.00000    
     12877 IM1      341      IM1      DC1      DRUD     -1.80430      0.400000           0   0.00000       0.00000    
     12878 IM1      341      IM1      H1       HDA3A    0.940000E-01   1.00800           0   0.00000       0.00000    
     12879 IM1      341      IM1      H2       HDA3A    0.940000E-01   1.00800           0   0.00000       0.00000    
     12880 IM1      341      IM1      H3       HDA3A    0.940000E-01   1.00800           0   0.00000       0.00000    
     12881 IM1      341      IM1      N1       ND2R5A    1.92920       13.6070           0  -1.06300       1.30000    
     12882 IM1      341      IM1      DN1      DRUD     -1.78920      0.400000           0   0.00000       0.00000    
     12883 IM1      341      IM1      C2       CD2R5A    1.66810       11.6110           0  -1.37800       1.30000    
     12884 IM1      341      IM1      DC2      DRUD     -2.03710      0.400000           0   0.00000       0.00000    
     12885 IM1      341      IM1      H4       HDR5A    0.150000       1.00800           0   0.00000       0.00000    
     12886 IM1      341      IM1      C3       CD2R5A    2.22510       11.6110           0  -1.37800       1.30000    
     12887 IM1      341      IM1      DC3      DRUD     -2.03710      0.400000           0   0.00000       0.00000    
     12888 IM1      341      IM1      H5       HDR5A    0.530000E-01   1.00800           0   0.00000       0.00000    
     12889 IM1      341      IM1      C4       CD2R5B    1.73480       11.6110           0 -0.868000       1.30000    
     12890 IM1      341      IM1      DC4      DRUD     -1.61680      0.400000           0   0.00000       0.00000    
     12891 IM1      341      IM1      H6       HDR5B    0.730000E-01   1.00800           0   0.00000       0.00000    
     12892 IM1      341      IM1      N2       ND2R5B    1.59050       13.6070           0 -0.840000       1.00000    
     12893 IM1      341      IM1      DN2      DRUD     -1.59050      0.400000           0   0.00000       0.00000    
     12894 IM1      341      IM1      H7       DUMH      0.00000       1.00800           0   0.00000       0.00000    
     12895 IM1      341      IM1      LPN21    LPD     -0.474000       0.00000          -1   0.00000       0.00000    
     12896 IM1      342      IM1      C1       CD33G     1.64330       11.6110           0  -1.08100       1.00000    
     12897 IM1      342      IM1      DC1      DRUD     -1.80430      0.400000           0   0.00000       0.00000    
     12898 IM1      342      IM1      H1       HDA3A    0.940000E-01   1.00800           0   0.00000       0.00000    
     12899 IM1      342      IM1      H2       HDA3A    0.940000E-01   1.00800           0   0.00000       0.00000    
     12900 IM1      342      IM1      H3       HDA3A    0.940000E-01   1.00800           0   0.00000       0.00000    
     12901 IM1      342      IM1      N1       ND2R5A    1.92920       13.6070           0  -1.06300       1.30000    
     12902 IM1      342      IM1      DN1      DRUD     -1.78920      0.400000           0   0.00000       0.00000    
     12903 IM1      342      IM1      C2       CD2R5A    1.66810       11.6110           0  -1.37800       1.30000    
     12904 IM1      342      IM1      DC2      DRUD     -2.03710      0.400000           0   0.00000       0.00000    
     12905 IM1      342      IM1      H4       HDR5A    0.150000       1.00800           0   0.00000       0.00000    
     12906 IM1      342      IM1      C3       CD2R5A    2.22510       11.6110           0  -1.37800       1.30000    
     12907 IM1      342      IM1      DC3      DRUD     -2.03710      0.400000           0   0.00000       0.00000    
     12908 IM1      342      IM1      H5       HDR5A    0.530000E-01   1.00800           0   0.00000       0.00000    
     12909 IM1      342      IM1      C4       CD2R5B    1.73480       11.6110           0 -0.868000       1.30000    
     12910 IM1      342      IM1      DC4      DRUD     -1.61680      0.400000           0   0.00000       0.00000    
     12911 IM1      342      IM1      H6       HDR5B    0.730000E-01   1.00800           0   0.00000       0.00000    
     12912 IM1      342      IM1      N2       ND2R5B    1.59050       13.6070           0 -0.840000       1.00000    
     12913 IM1      342      IM1      DN2      DRUD     -1.59050      0.400000           0   0.00000       0.00000    
     12914 IM1      342      IM1      H7       DUMH      0.00000       1.00800           0   0.00000       0.00000    
     12915 IM1      342      IM1      LPN21    LPD     -0.474000       0.00000          -1   0.00000       0.00000    
     12916 IM1      343      IM1      C1       CD33G     1.64330       11.6110           0  -1.08100       1.00000    
     12917 IM1      343      IM1      DC1      DRUD     -1.80430      0.400000           0   0.00000       0.00000    
     12918 IM1      343      IM1      H1       HDA3A    0.940000E-01   1.00800           0   0.00000       0.00000    
     12919 IM1      343      IM1      H2       HDA3A    0.940000E-01   1.00800           0   0.00000       0.00000    
     12920 IM1      343      IM1      H3       HDA3A    0.940000E-01   1.00800           0   0.00000       0.00000    
     12921 IM1      343      IM1      N1       ND2R5A    1.92920       13.6070           0  -1.06300       1.30000    
     12922 IM1      343      IM1      DN1      DRUD     -1.78920      0.400000           0   0.00000       0.00000    
     12923 IM1      343      IM1      C2       CD2R5A    1.66810       11.6110           0  -1.37800       1.30000    
     12924 IM1      343      IM1      DC2      DRUD     -2.03710      0.400000           0   0.00000       0.00000    
     12925 IM1      343      IM1      H4       HDR5A    0.150000       1.00800           0   0.00000       0.00000    
     12926 IM1      343      IM1      C3       CD2R5A    2.22510       11.6110           0  -1.37800       1.30000    
     12927 IM1      343      IM1      DC3      DRUD     -2.03710      0.400000           0   0.00000       0.00000    
     12928 IM1      343      IM1      H5       HDR5A    0.530000E-01   1.00800           0   0.00000       0.00000    
     12929 IM1      343      IM1      C4       CD2R5B    1.73480       11.6110           0 -0.868000       1.30000    
     12930 IM1      343      IM1      DC4      DRUD     -1.61680      0.400000           0   0.00000       0.00000    
     12931 IM1      343      IM1      H6       HDR5B    0.730000E-01   1.00800           0   0.00000       0.00000    
     12932 IM1      343      IM1      N2       ND2R5B    1.59050       13.6070           0 -0.840000       1.00000    
     12933 IM1      343      IM1      DN2      DRUD     -1.59050      0.400000           0   0.00000       0.00000    
     12934 IM1      343      IM1      H7       DUMH      0.00000       1.00800           0   0.00000       0.00000    
     12935 IM1      343      IM1      LPN21    LPD     -0.474000       0.00000          -1   0.00000       0.00000    
     12936 IM1      344      IM1      C1       CD33G     1.64330       11.6110           0  -1.08100       1.00000    
     12937 IM1      344      IM1      DC1      DRUD     -1.80430      0.400000           0   0.00000       0.00000    
     12938 IM1      344      IM1      H1       HDA3A    0.940000E-01   1.00800           0   0.00000       0.00000    
     12939 IM1      344      IM1      H2       HDA3A    0.940000E-01   1.00800           0   0.00000       0.00000    
     12940 IM1      344      IM1      H3       HDA3A    0.940000E-01   1.00800           0   0.00000       0.00000    
     12941 IM1      344      IM1      N1       ND2R5A    1.92920       13.6070           0  -1.06300       1.30000    
     12942 IM1      344      IM1      DN1      DRUD     -1.78920      0.400000           0   0.00000       0.00000    
     12943 IM1      344      IM1      C2       CD2R5A    1.66810       11.6110           0  -1.37800       1.30000    
     12944 IM1      344      IM1      DC2      DRUD     -2.03710      0.400000           0   0.00000       0.00000    
     12945 IM1      344      IM1      H4       HDR5A    0.150000       1.00800           0   0.00000       0.00000    
     12946 IM1      344      IM1      C3       CD2R5A    2.22510       11.6110           0  -1.37800       1.30000    
     12947 IM1      344      IM1      DC3      DRUD     -2.03710      0.400000           0   0.00000       0.00000    
     12948 IM1      344      IM1      H5       HDR5A    0.530000E-01   1.00800           0   0.00000       0.00000    
     12949 IM1      344      IM1      C4       CD2R5B    1.73480       11.6110           0 -0.868000       1.30000    
     12950 IM1      344      IM1      DC4      DRUD     -1.61680      0.400000           0   0.00000       0.00000    
     12951 IM1      344      IM1      H6       HDR5B    0.730000E-01   1.00800           0   0.00000       0.00000    
     12952 IM1      344      IM1      N2       ND2R5B    1.59050       13.6070           0 -0.840000       1.00000    
     12953 IM1      344      IM1      DN2      DRUD     -1.59050      0.400000           0   0.00000       0.00000    
     12954 IM1      344      IM1      H7       DUMH      0.00000       1.00800           0   0.00000       0.00000    
     12955 IM1      344      IM1      LPN21    LPD     -0.474000       0.00000          -1   0.00000       0.00000    
     12956 IM1      345      IM1      C1       CD33G     1.64330       11.6110           0  -1.08100       1.00000    
     12957 IM1      345      IM1      DC1      DRUD     -1.80430      0.400000           0   0.00000       0.00000    
     12958 IM1      345      IM1      H1       HDA3A    0.940000E-01   1.00800           0   0.00000       0.00000    
     12959 IM1      345      IM1      H2       HDA3A    0.940000E-01   1.00800           0   0.00000       0.00000    
     12960 IM1      345      IM1      H3       HDA3A    0.940000E-01   1.00800           0   0.00000       0.00000    
     12961 IM1      345      IM1      N1       ND2R5A    1.92920       13.6070           0  -1.06300       1.30000    
     12962 IM1      345      IM1      DN1      DRUD     -1.78920      0.400000           0   0.00000       0.00000    
     12963 IM1      345      IM1      C2       CD2R5A    1.66810       11.6110           0  -1.37800       1.30000    
     12964 IM1      345      IM1      DC2      DRUD     -2.03710      0.400000           0   0.00000       0.00000    
     12965 IM1      345      IM1      H4       HDR5A    0.150000       1.00800           0   0.00000       0.00000    
     12966 IM1      345      IM1      C3       CD2R5A    2.22510       11.6110           0  -1.37800       1.30000    
     12967 IM1      345      IM1      DC3      DRUD     -2.03710      0.400000           0   0.00000       0.00000    
     12968 IM1      345      IM1      H5       HDR5A    0.530000E-01   1.00800           0   0.00000       0.00000    
     12969 IM1      345      IM1      C4       CD2R5B    1.73480       11.6110           0 -0.868000       1.30000    
     12970 IM1      345      IM1      DC4      DRUD     -1.61680      0.400000           0   0.00000       0.00000    
     12971 IM1      345      IM1      H6       HDR5B    0.730000E-01   1.00800           0   0.00000       0.00000    
     12972 IM1      345      IM1      N2       ND2R5B    1.59050       13.6070           0 -0.840000       1.00000    
     12973 IM1      345      IM1      DN2      DRUD     -1.59050      0.400000           0   0.00000       0.00000    
     12974 IM1      345      IM1      H7       DUMH      0.00000       1.00800           0   0.00000       0.00000    
     12975 IM1      345      IM1      LPN21    LPD     -0.474000       0.00000          -1   0.00000       0.00000    
     12976 IM1      346      IM1      C1       CD33G     1.64330       11.6110           0  -1.08100       1.00000    
     12977 IM1      346      IM1      DC1      DRUD     -1.80430      0.400000           0   0.00000       0.00000    
     12978 IM1      346      IM1      H1       HDA3A    0.940000E-01   1.00800           0   0.00000       0.00000    
     12979 IM1      346      IM1      H2       HDA3A    0.940000E-01   1.00800           0   0.00000       0.00000    
     12980 IM1      346      IM1      H3       HDA3A    0.940000E-01   1.00800           0   0.00000       0.00000    
     12981 IM1      346      IM1      N1       ND2R5A    1.92920       13.6070           0  -1.06300       1.30000    
     12982 IM1      346      IM1      DN1      DRUD     -1.78920      0.400000           0   0.00000       0.00000    
     12983 IM1      346      IM1      C2       CD2R5A    1.66810       11.6110           0  -1.37800       1.30000    
     12984 IM1      346      IM1      DC2      DRUD     -2.03710      0.400000           0   0.00000       0.00000    
     12985 IM1      346      IM1      H4       HDR5A    0.150000       1.00800           0   0.00000       0.00000    
     12986 IM1      346      IM1      C3       CD2R5A    2.22510       11.6110           0  -1.37800       1.30000    
     12987 IM1      346      IM1      DC3      DRUD     -2.03710      0.400000           0   0.00000       0.00000    
     12988 IM1      346      IM1      H5       HDR5A    0.530000E-01   1.00800           0   0.00000       0.00000    
     12989 IM1      346      IM1      C4       CD2R5B    1.73480       11.6110           0 -0.868000       1.30000    
     12990 IM1      346      IM1      DC4      DRUD     -1.61680      0.400000           0   0.00000       0.00000    
     12991 IM1      346      IM1      H6       HDR5B    0.730000E-01   1.00800           0   0.00000       0.00000    
     12992 IM1      346      IM1      N2       ND2R5B    1.59050       13.6070           0 -0.840000       1.00000    
     12993 IM1      346      IM1      DN2      DRUD     -1.59050      0.400000           0   0.00000       0.00000    
     12994 IM1      346      IM1      H7       DUMH      0.00000       1.00800           0   0.00000       0.00000    
     12995 IM1      346      IM1      LPN21    LPD     -0.474000       0.00000          -1   0.00000       0.00000    
     12996 IM1      347      IM1      C1       CD33G     1.64330       11.6110           0  -1.08100       1.00000    
     12997 IM1      347      IM1      DC1      DRUD     -1.80430      0.400000           0   0.00000       0.00000    
     12998 IM1      347      IM1      H1       HDA3A    0.940000E-01   1.00800           0   0.00000       0.00000    
     12999 IM1      347      IM1      H2       HDA3A    0.940000E-01   1.00800           0   0.00000       0.00000    
     13000 IM1      347      IM1      H3       HDA3A    0.940000E-01   1.00800           0   0.00000       0.00000    
     13001 IM1      347      IM1      N1       ND2R5A    1.92920       13.6070           0  -1.06300       1.30000    
     13002 IM1      347      IM1      DN1      DRUD     -1.78920      0.400000           0   0.00000       0.00000    
     13003 IM1      347      IM1      C2       CD2R5A    1.66810       11.6110           0  -1.37800       1.30000    
     13004 IM1      347      IM1      DC2      DRUD     -2.03710      0.400000           0   0.00000       0.00000    
     13005 IM1      347      IM1      H4       HDR5A    0.150000       1.00800           0   0.00000       0.00000    
     13006 IM1      347      IM1      C3       CD2R5A    2.22510       11.6110           0  -1.37800       1.30000    
     13007 IM1      347      IM1      DC3      DRUD     -2.03710      0.400000           0   0.00000       0.00000    
     13008 IM1      347      IM1      H5       HDR5A    0.530000E-01   1.00800           0   0.00000       0.00000    
     13009 IM1      347      IM1      C4       CD2R5B    1.73480       11.6110           0 -0.868000       1.30000    
     13010 IM1      347      IM1      DC4      DRUD     -1.61680      0.400000           0   0.00000       0.00000    
     13011 IM1      347      IM1      H6       HDR5B    0.730000E-01   1.00800           0   0.00000       0.00000    
     13012 IM1      347      IM1      N2       ND2R5B    1.59050       13.6070           0 -0.840000       1.00000    
     13013 IM1      347      IM1      DN2      DRUD     -1.59050      0.400000           0   0.00000       0.00000    
     13014 IM1      347      IM1      H7       DUMH      0.00000       1.00800           0   0.00000       0.00000    
     13015 IM1      347      IM1      LPN21    LPD     -0.474000       0.00000          -1   0.00000       0.00000    
     13016 IM1      348      IM1      C1       CD33G     1.64330       11.6110           0  -1.08100       1.00000    
     13017 IM1      348      IM1      DC1      DRUD     -1.80430      0.400000           0   0.00000       0.00000    
     13018 IM1      348      IM1      H1       HDA3A    0.940000E-01   1.00800           0   0.00000       0.00000    
     13019 IM1      348      IM1      H2       HDA3A    0.940000E-01   1.00800           0   0.00000       0.00000    
     13020 IM1      348      IM1      H3       HDA3A    0.940000E-01   1.00800           0   0.00000       0.00000    
     13021 IM1      348      IM1      N1       ND2R5A    1.92920       13.6070           0  -1.06300       1.30000    
     13022 IM1      348      IM1      DN1      DRUD     -1.78920      0.400000           0   0.00000       0.00000    
     13023 IM1      348      IM1      C2       CD2R5A    1.66810       11.6110           0  -1.37800       1.30000    
     13024 IM1      348      IM1      DC2      DRUD     -2.03710      0.400000           0   0.00000       0.00000    
     13025 IM1      348      IM1      H4       HDR5A    0.150000       1.00800           0   0.00000       0.00000    
     13026 IM1      348      IM1      C3       CD2R5A    2.22510       11.6110           0  -1.37800       1.30000    
     13027 IM1      348      IM1      DC3      DRUD     -2.03710      0.400000           0   0.00000       0.00000    
     13028 IM1      348      IM1      H5       HDR5A    0.530000E-01   1.00800           0   0.00000       0.00000    
     13029 IM1      348      IM1      C4       CD2R5B    1.73480       11.6110           0 -0.868000       1.30000    
     13030 IM1      348      IM1      DC4      DRUD     -1.61680      0.400000           0   0.00000       0.00000    
     13031 IM1      348      IM1      H6       HDR5B    0.730000E-01   1.00800           0   0.00000       0.00000    
     13032 IM1      348      IM1      N2       ND2R5B    1.59050       13.6070           0 -0.840000       1.00000    
     13033 IM1      348      IM1      DN2      DRUD     -1.59050      0.400000           0   0.00000       0.00000    
     13034 IM1      348      IM1      H7       DUMH      0.00000       1.00800           0   0.00000       0.00000    
     13035 IM1      348      IM1      LPN21    LPD     -0.474000       0.00000          -1   0.00000       0.00000    
     13036 IM1      349      IM1      C1       CD33G     1.64330       11.6110           0  -1.08100       1.00000    
     13037 IM1      349      IM1      DC1      DRUD     -1.80430      0.400000           0   0.00000       0.00000    
     13038 IM1      349      IM1      H1       HDA3A    0.940000E-01   1.00800           0   0.00000       0.00000    
     13039 IM1      349      IM1      H2       HDA3A    0.940000E-01   1.00800           0   0.00000       0.00000    
     13040 IM1      349      IM1      H3       HDA3A    0.940000E-01   1.00800           0   0.00000       0.00000    
     13041 IM1      349      IM1      N1       ND2R5A    1.92920       13.6070           0  -1.06300       1.30000    
     13042 IM1      349      IM1      DN1      DRUD     -1.78920      0.400000           0   0.00000       0.00000    
     13043 IM1      349      IM1      C2       CD2R5A    1.66810       11.6110           0  -1.37800       1.30000    
     13044 IM1      349      IM1      DC2      DRUD     -2.03710      0.400000           0   0.00000       0.00000    
     13045 IM1      349      IM1      H4       HDR5A    0.150000       1.00800           0   0.00000       0.00000    
     13046 IM1      349      IM1      C3       CD2R5A    2.22510       11.6110           0  -1.37800       1.30000    
     13047 IM1      349      IM1      DC3      DRUD     -2.03710      0.400000           0   0.00000       0.00000    
     13048 IM1      349      IM1      H5       HDR5A    0.530000E-01   1.00800           0   0.00000       0.00000    
     13049 IM1      349      IM1      C4       CD2R5B    1.73480       11.6110           0 -0.868000       1.30000    
     13050 IM1      349      IM1      DC4      DRUD     -1.61680      0.400000           0   0.00000       0.00000    
     13051 IM1      349      IM1      H6       HDR5B    0.730000E-01   1.00800           0   0.00000       0.00000    
     13052 IM1      349      IM1      N2       ND2R5B    1.59050       13.6070           0 -0.840000       1.00000    
     13053 IM1      349      IM1      DN2      DRUD     -1.59050      0.400000           0   0.00000       0.00000    
     13054 IM1      349      IM1      H7       DUMH      0.00000       1.00800           0   0.00000       0.00000    
     13055 IM1      349      IM1      LPN21    LPD     -0.474000       0.00000          -1   0.00000       0.00000    
     13056 IM1      350      IM1      C1       CD33G     1.64330       11.6110           0  -1.08100       1.00000    
     13057 IM1      350      IM1      DC1      DRUD     -1.80430      0.400000           0   0.00000       0.00000    
     13058 IM1      350      IM1      H1       HDA3A    0.940000E-01   1.00800           0   0.00000       0.00000    
     13059 IM1      350      IM1      H2       HDA3A    0.940000E-01   1.00800           0   0.00000       0.00000    
     13060 IM1      350      IM1      H3       HDA3A    0.940000E-01   1.00800           0   0.00000       0.00000    
     13061 IM1      350      IM1      N1       ND2R5A    1.92920       13.6070           0  -1.06300       1.30000    
     13062 IM1      350      IM1      DN1      DRUD     -1.78920      0.400000           0   0.00000       0.00000    
     13063 IM1      350      IM1      C2       CD2R5A    1.66810       11.6110           0  -1.37800       1.30000    
     13064 IM1      350      IM1      DC2      DRUD     -2.03710      0.400000           0   0.00000       0.00000    
     13065 IM1      350      IM1      H4       HDR5A    0.150000       1.00800           0   0.00000       0.00000    
     13066 IM1      350      IM1      C3       CD2R5A    2.22510       11.6110           0  -1.37800       1.30000    
     13067 IM1      350      IM1      DC3      DRUD     -2.03710      0.400000           0   0.00000       0.00000    
     13068 IM1      350      IM1      H5       HDR5A    0.530000E-01   1.00800           0   0.00000       0.00000    
     13069 IM1      350      IM1      C4       CD2R5B    1.73480       11.6110           0 -0.868000       1.30000    
     13070 IM1      350      IM1      DC4      DRUD     -1.61680      0.400000           0   0.00000       0.00000    
     13071 IM1      350      IM1      H6       HDR5B    0.730000E-01   1.00800           0   0.00000       0.00000    
     13072 IM1      350      IM1      N2       ND2R5B    1.59050       13.6070           0 -0.840000       1.00000    
     13073 IM1      350      IM1      DN2      DRUD     -1.59050      0.400000           0   0.00000       0.00000    
     13074 IM1      350      IM1      H7       DUMH      0.00000       1.00800           0   0.00000       0.00000    
     13075 IM1      350      IM1      LPN21    LPD     -0.474000       0.00000          -1   0.00000       0.00000    
     13076 IM1      351      IM1      C1       CD33G     1.64330       11.6110           0  -1.08100       1.00000    
     13077 IM1      351      IM1      DC1      DRUD     -1.80430      0.400000           0   0.00000       0.00000    
     13078 IM1      351      IM1      H1       HDA3A    0.940000E-01   1.00800           0   0.00000       0.00000    
     13079 IM1      351      IM1      H2       HDA3A    0.940000E-01   1.00800           0   0.00000       0.00000    
     13080 IM1      351      IM1      H3       HDA3A    0.940000E-01   1.00800           0   0.00000       0.00000    
     13081 IM1      351      IM1      N1       ND2R5A    1.92920       13.6070           0  -1.06300       1.30000    
     13082 IM1      351      IM1      DN1      DRUD     -1.78920      0.400000           0   0.00000       0.00000    
     13083 IM1      351      IM1      C2       CD2R5A    1.66810       11.6110           0  -1.37800       1.30000    
     13084 IM1      351      IM1      DC2      DRUD     -2.03710      0.400000           0   0.00000       0.00000    
     13085 IM1      351      IM1      H4       HDR5A    0.150000       1.00800           0   0.00000       0.00000    
     13086 IM1      351      IM1      C3       CD2R5A    2.22510       11.6110           0  -1.37800       1.30000    
     13087 IM1      351      IM1      DC3      DRUD     -2.03710      0.400000           0   0.00000       0.00000    
     13088 IM1      351      IM1      H5       HDR5A    0.530000E-01   1.00800           0   0.00000       0.00000    
     13089 IM1      351      IM1      C4       CD2R5B    1.73480       11.6110           0 -0.868000       1.30000    
     13090 IM1      351      IM1      DC4      DRUD     -1.61680      0.400000           0   0.00000       0.00000    
     13091 IM1      351      IM1      H6       HDR5B    0.730000E-01   1.00800           0   0.00000       0.00000    
     13092 IM1      351      IM1      N2       ND2R5B    1.59050       13.6070           0 -0.840000       1.00000    
     13093 IM1      351      IM1      DN2      DRUD     -1.59050      0.400000           0   0.00000       0.00000    
     13094 IM1      351      IM1      H7       DUMH      0.00000       1.00800           0   0.00000       0.00000    
     13095 IM1      351      IM1      LPN21    LPD     -0.474000       0.00000          -1   0.00000       0.00000    
     13096 IM1      352      IM1      C1       CD33G     1.64330       11.6110           0  -1.08100       1.00000    
     13097 IM1      352      IM1      DC1      DRUD     -1.80430      0.400000           0   0.00000       0.00000    
     13098 IM1      352      IM1      H1       HDA3A    0.940000E-01   1.00800           0   0.00000       0.00000    
     13099 IM1      352      IM1      H2       HDA3A    0.940000E-01   1.00800           0   0.00000       0.00000    
     13100 IM1      352      IM1      H3       HDA3A    0.940000E-01   1.00800           0   0.00000       0.00000    
     13101 IM1      352      IM1      N1       ND2R5A    1.92920       13.6070           0  -1.06300       1.30000    
     13102 IM1      352      IM1      DN1      DRUD     -1.78920      0.400000           0   0.00000       0.00000    
     13103 IM1      352      IM1      C2       CD2R5A    1.66810       11.6110           0  -1.37800       1.30000    
     13104 IM1      352      IM1      DC2      DRUD     -2.03710      0.400000           0   0.00000       0.00000    
     13105 IM1      352      IM1      H4       HDR5A    0.150000       1.00800           0   0.00000       0.00000    
     13106 IM1      352      IM1      C3       CD2R5A    2.22510       11.6110           0  -1.37800       1.30000    
     13107 IM1      352      IM1      DC3      DRUD     -2.03710      0.400000           0   0.00000       0.00000    
     13108 IM1      352      IM1      H5       HDR5A    0.530000E-01   1.00800           0   0.00000       0.00000    
     13109 IM1      352      IM1      C4       CD2R5B    1.73480       11.6110           0 -0.868000       1.30000    
     13110 IM1      352      IM1      DC4      DRUD     -1.61680      0.400000           0   0.00000       0.00000    
     13111 IM1      352      IM1      H6       HDR5B    0.730000E-01   1.00800           0   0.00000       0.00000    
     13112 IM1      352      IM1      N2       ND2R5B    1.59050       13.6070           0 -0.840000       1.00000    
     13113 IM1      352      IM1      DN2      DRUD     -1.59050      0.400000           0   0.00000       0.00000    
     13114 IM1      352      IM1      H7       DUMH      0.00000       1.00800           0   0.00000       0.00000    
     13115 IM1      352      IM1      LPN21    LPD     -0.474000       0.00000          -1   0.00000       0.00000    
     13116 IM1      353      IM1      C1       CD33G     1.64330       11.6110           0  -1.08100       1.00000    
     13117 IM1      353      IM1      DC1      DRUD     -1.80430      0.400000           0   0.00000       0.00000    
     13118 IM1      353      IM1      H1       HDA3A    0.940000E-01   1.00800           0   0.00000       0.00000    
     13119 IM1      353      IM1      H2       HDA3A    0.940000E-01   1.00800           0   0.00000       0.00000    
     13120 IM1      353      IM1      H3       HDA3A    0.940000E-01   1.00800           0   0.00000       0.00000    
     13121 IM1      353      IM1      N1       ND2R5A    1.92920       13.6070           0  -1.06300       1.30000    
     13122 IM1      353      IM1      DN1      DRUD     -1.78920      0.400000           0   0.00000       0.00000    
     13123 IM1      353      IM1      C2       CD2R5A    1.66810       11.6110           0  -1.37800       1.30000    
     13124 IM1      353      IM1      DC2      DRUD     -2.03710      0.400000           0   0.00000       0.00000    
     13125 IM1      353      IM1      H4       HDR5A    0.150000       1.00800           0   0.00000       0.00000    
     13126 IM1      353      IM1      C3       CD2R5A    2.22510       11.6110           0  -1.37800       1.30000    
     13127 IM1      353      IM1      DC3      DRUD     -2.03710      0.400000           0   0.00000       0.00000    
     13128 IM1      353      IM1      H5       HDR5A    0.530000E-01   1.00800           0   0.00000       0.00000    
     13129 IM1      353      IM1      C4       CD2R5B    1.73480       11.6110           0 -0.868000       1.30000    
     13130 IM1      353      IM1      DC4      DRUD     -1.61680      0.400000           0   0.00000       0.00000    
     13131 IM1      353      IM1      H6       HDR5B    0.730000E-01   1.00800           0   0.00000       0.00000    
     13132 IM1      353      IM1      N2       ND2R5B    1.59050       13.6070           0 -0.840000       1.00000    
     13133 IM1      353      IM1      DN2      DRUD     -1.59050      0.400000           0   0.00000       0.00000    
     13134 IM1      353      IM1      H7       DUMH      0.00000       1.00800           0   0.00000       0.00000    
     13135 IM1      353      IM1      LPN21    LPD     -0.474000       0.00000          -1   0.00000       0.00000    
     13136 IM1      354      IM1      C1       CD33G     1.64330       11.6110           0  -1.08100       1.00000    
     13137 IM1      354      IM1      DC1      DRUD     -1.80430      0.400000           0   0.00000       0.00000    
     13138 IM1      354      IM1      H1       HDA3A    0.940000E-01   1.00800           0   0.00000       0.00000    
     13139 IM1      354      IM1      H2       HDA3A    0.940000E-01   1.00800           0   0.00000       0.00000    
     13140 IM1      354      IM1      H3       HDA3A    0.940000E-01   1.00800           0   0.00000       0.00000    
     13141 IM1      354      IM1      N1       ND2R5A    1.92920       13.6070           0  -1.06300       1.30000    
     13142 IM1      354      IM1      DN1      DRUD     -1.78920      0.400000           0   0.00000       0.00000    
     13143 IM1      354      IM1      C2       CD2R5A    1.66810       11.6110           0  -1.37800       1.30000    
     13144 IM1      354      IM1      DC2      DRUD     -2.03710      0.400000           0   0.00000       0.00000    
     13145 IM1      354      IM1      H4       HDR5A    0.150000       1.00800           0   0.00000       0.00000    
     13146 IM1      354      IM1      C3       CD2R5A    2.22510       11.6110           0  -1.37800       1.30000    
     13147 IM1      354      IM1      DC3      DRUD     -2.03710      0.400000           0   0.00000       0.00000    
     13148 IM1      354      IM1      H5       HDR5A    0.530000E-01   1.00800           0   0.00000       0.00000    
     13149 IM1      354      IM1      C4       CD2R5B    1.73480       11.6110           0 -0.868000       1.30000    
     13150 IM1      354      IM1      DC4      DRUD     -1.61680      0.400000           0   0.00000       0.00000    
     13151 IM1      354      IM1      H6       HDR5B    0.730000E-01   1.00800           0   0.00000       0.00000    
     13152 IM1      354      IM1      N2       ND2R5B    1.59050       13.6070           0 -0.840000       1.00000    
     13153 IM1      354      IM1      DN2      DRUD     -1.59050      0.400000           0   0.00000       0.00000    
     13154 IM1      354      IM1      H7       DUMH      0.00000       1.00800           0   0.00000       0.00000    
     13155 IM1      354      IM1      LPN21    LPD     -0.474000       0.00000          -1   0.00000       0.00000    
     13156 IM1      355      IM1      C1       CD33G     1.64330       11.6110           0  -1.08100       1.00000    
     13157 IM1      355      IM1      DC1      DRUD     -1.80430      0.400000           0   0.00000       0.00000    
     13158 IM1      355      IM1      H1       HDA3A    0.940000E-01   1.00800           0   0.00000       0.00000    
     13159 IM1      355      IM1      H2       HDA3A    0.940000E-01   1.00800           0   0.00000       0.00000    
     13160 IM1      355      IM1      H3       HDA3A    0.940000E-01   1.00800           0   0.00000       0.00000    
     13161 IM1      355      IM1      N1       ND2R5A    1.92920       13.6070           0  -1.06300       1.30000    
     13162 IM1      355      IM1      DN1      DRUD     -1.78920      0.400000           0   0.00000       0.00000    
     13163 IM1      355      IM1      C2       CD2R5A    1.66810       11.6110           0  -1.37800       1.30000    
     13164 IM1      355      IM1      DC2      DRUD     -2.03710      0.400000           0   0.00000       0.00000    
     13165 IM1      355      IM1      H4       HDR5A    0.150000       1.00800           0   0.00000       0.00000    
     13166 IM1      355      IM1      C3       CD2R5A    2.22510       11.6110           0  -1.37800       1.30000    
     13167 IM1      355      IM1      DC3      DRUD     -2.03710      0.400000           0   0.00000       0.00000    
     13168 IM1      355      IM1      H5       HDR5A    0.530000E-01   1.00800           0   0.00000       0.00000    
     13169 IM1      355      IM1      C4       CD2R5B    1.73480       11.6110           0 -0.868000       1.30000    
     13170 IM1      355      IM1      DC4      DRUD     -1.61680      0.400000           0   0.00000       0.00000    
     13171 IM1      355      IM1      H6       HDR5B    0.730000E-01   1.00800           0   0.00000       0.00000    
     13172 IM1      355      IM1      N2       ND2R5B    1.59050       13.6070           0 -0.840000       1.00000    
     13173 IM1      355      IM1      DN2      DRUD     -1.59050      0.400000           0   0.00000       0.00000    
     13174 IM1      355      IM1      H7       DUMH      0.00000       1.00800           0   0.00000       0.00000    
     13175 IM1      355      IM1      LPN21    LPD     -0.474000       0.00000          -1   0.00000       0.00000    
     13176 IM1      356      IM1      C1       CD33G     1.64330       11.6110           0  -1.08100       1.00000    
     13177 IM1      356      IM1      DC1      DRUD     -1.80430      0.400000           0   0.00000       0.00000    
     13178 IM1      356      IM1      H1       HDA3A    0.940000E-01   1.00800           0   0.00000       0.00000    
     13179 IM1      356      IM1      H2       HDA3A    0.940000E-01   1.00800           0   0.00000       0.00000    
     13180 IM1      356      IM1      H3       HDA3A    0.940000E-01   1.00800           0   0.00000       0.00000    
     13181 IM1      356      IM1      N1       ND2R5A    1.92920       13.6070           0  -1.06300       1.30000    
     13182 IM1      356      IM1      DN1      DRUD     -1.78920      0.400000           0   0.00000       0.00000    
     13183 IM1      356      IM1      C2       CD2R5A    1.66810       11.6110           0  -1.37800       1.30000    
     13184 IM1      356      IM1      DC2      DRUD     -2.03710      0.400000           0   0.00000       0.00000    
     13185 IM1      356      IM1      H4       HDR5A    0.150000       1.00800           0   0.00000       0.00000    
     13186 IM1      356      IM1      C3       CD2R5A    2.22510       11.6110           0  -1.37800       1.30000    
     13187 IM1      356      IM1      DC3      DRUD     -2.03710      0.400000           0   0.00000       0.00000    
     13188 IM1      356      IM1      H5       HDR5A    0.530000E-01   1.00800           0   0.00000       0.00000    
     13189 IM1      356      IM1      C4       CD2R5B    1.73480       11.6110           0 -0.868000       1.30000    
     13190 IM1      356      IM1      DC4      DRUD     -1.61680      0.400000           0   0.00000       0.00000    
     13191 IM1      356      IM1      H6       HDR5B    0.730000E-01   1.00800           0   0.00000       0.00000    
     13192 IM1      356      IM1      N2       ND2R5B    1.59050       13.6070           0 -0.840000       1.00000    
     13193 IM1      356      IM1      DN2      DRUD     -1.59050      0.400000           0   0.00000       0.00000    
     13194 IM1      356      IM1      H7       DUMH      0.00000       1.00800           0   0.00000       0.00000    
     13195 IM1      356      IM1      LPN21    LPD     -0.474000       0.00000          -1   0.00000       0.00000    
     13196 IM1      357      IM1      C1       CD33G     1.64330       11.6110           0  -1.08100       1.00000    
     13197 IM1      357      IM1      DC1      DRUD     -1.80430      0.400000           0   0.00000       0.00000    
     13198 IM1      357      IM1      H1       HDA3A    0.940000E-01   1.00800           0   0.00000       0.00000    
     13199 IM1      357      IM1      H2       HDA3A    0.940000E-01   1.00800           0   0.00000       0.00000    
     13200 IM1      357      IM1      H3       HDA3A    0.940000E-01   1.00800           0   0.00000       0.00000    
     13201 IM1      357      IM1      N1       ND2R5A    1.92920       13.6070           0  -1.06300       1.30000    
     13202 IM1      357      IM1      DN1      DRUD     -1.78920      0.400000           0   0.00000       0.00000    
     13203 IM1      357      IM1      C2       CD2R5A    1.66810       11.6110           0  -1.37800       1.30000    
     13204 IM1      357      IM1      DC2      DRUD     -2.03710      0.400000           0   0.00000       0.00000    
     13205 IM1      357      IM1      H4       HDR5A    0.150000       1.00800           0   0.00000       0.00000    
     13206 IM1      357      IM1      C3       CD2R5A    2.22510       11.6110           0  -1.37800       1.30000    
     13207 IM1      357      IM1      DC3      DRUD     -2.03710      0.400000           0   0.00000       0.00000    
     13208 IM1      357      IM1      H5       HDR5A    0.530000E-01   1.00800           0   0.00000       0.00000    
     13209 IM1      357      IM1      C4       CD2R5B    1.73480       11.6110           0 -0.868000       1.30000    
     13210 IM1      357      IM1      DC4      DRUD     -1.61680      0.400000           0   0.00000       0.00000    
     13211 IM1      357      IM1      H6       HDR5B    0.730000E-01   1.00800           0   0.00000       0.00000    
     13212 IM1      357      IM1      N2       ND2R5B    1.59050       13.6070           0 -0.840000       1.00000    
     13213 IM1      357      IM1      DN2      DRUD     -1.59050      0.400000           0   0.00000       0.00000    
     13214 IM1      357      IM1      H7       DUMH      0.00000       1.00800           0   0.00000       0.00000    
     13215 IM1      357      IM1      LPN21    LPD     -0.474000       0.00000          -1   0.00000       0.00000    
     13216 IM1      358      IM1      C1       CD33G     1.64330       11.6110           0  -1.08100       1.00000    
     13217 IM1      358      IM1      DC1      DRUD     -1.80430      0.400000           0   0.00000       0.00000    
     13218 IM1      358      IM1      H1       HDA3A    0.940000E-01   1.00800           0   0.00000       0.00000    
     13219 IM1      358      IM1      H2       HDA3A    0.940000E-01   1.00800           0   0.00000       0.00000    
     13220 IM1      358      IM1      H3       HDA3A    0.940000E-01   1.00800           0   0.00000       0.00000    
     13221 IM1      358      IM1      N1       ND2R5A    1.92920       13.6070           0  -1.06300       1.30000    
     13222 IM1      358      IM1      DN1      DRUD     -1.78920      0.400000           0   0.00000       0.00000    
     13223 IM1      358      IM1      C2       CD2R5A    1.66810       11.6110           0  -1.37800       1.30000    
     13224 IM1      358      IM1      DC2      DRUD     -2.03710      0.400000           0   0.00000       0.00000    
     13225 IM1      358      IM1      H4       HDR5A    0.150000       1.00800           0   0.00000       0.00000    
     13226 IM1      358      IM1      C3       CD2R5A    2.22510       11.6110           0  -1.37800       1.30000    
     13227 IM1      358      IM1      DC3      DRUD     -2.03710      0.400000           0   0.00000       0.00000    
     13228 IM1      358      IM1      H5       HDR5A    0.530000E-01   1.00800           0   0.00000       0.00000    
     13229 IM1      358      IM1      C4       CD2R5B    1.73480       11.6110           0 -0.868000       1.30000    
     13230 IM1      358      IM1      DC4      DRUD     -1.61680      0.400000           0   0.00000       0.00000    
     13231 IM1      358      IM1      H6       HDR5B    0.730000E-01   1.00800           0   0.00000       0.00000    
     13232 IM1      358      IM1      N2       ND2R5B    1.59050       13.6070           0 -0.840000       1.00000    
     13233 IM1      358      IM1      DN2      DRUD     -1.59050      0.400000           0   0.00000       0.00000    
     13234 IM1      358      IM1      H7       DUMH      0.00000       1.00800           0   0.00000       0.00000    
     13235 IM1      358      IM1      LPN21    LPD     -0.474000       0.00000          -1   0.00000       0.00000    
     13236 IM1      359      IM1      C1       CD33G     1.64330       11.6110           0  -1.08100       1.00000    
     13237 IM1      359      IM1      DC1      DRUD     -1.80430      0.400000           0   0.00000       0.00000    
     13238 IM1      359      IM1      H1       HDA3A    0.940000E-01   1.00800           0   0.00000       0.00000    
     13239 IM1      359      IM1      H2       HDA3A    0.940000E-01   1.00800           0   0.00000       0.00000    
     13240 IM1      359      IM1      H3       HDA3A    0.940000E-01   1.00800           0   0.00000       0.00000    
     13241 IM1      359      IM1      N1       ND2R5A    1.92920       13.6070           0  -1.06300       1.30000    
     13242 IM1      359      IM1      DN1      DRUD     -1.78920      0.400000           0   0.00000       0.00000    
     13243 IM1      359      IM1      C2       CD2R5A    1.66810       11.6110           0  -1.37800       1.30000    
     13244 IM1      359      IM1      DC2      DRUD     -2.03710      0.400000           0   0.00000       0.00000    
     13245 IM1      359      IM1      H4       HDR5A    0.150000       1.00800           0   0.00000       0.00000    
     13246 IM1      359      IM1      C3       CD2R5A    2.22510       11.6110           0  -1.37800       1.30000    
     13247 IM1      359      IM1      DC3      DRUD     -2.03710      0.400000           0   0.00000       0.00000    
     13248 IM1      359      IM1      H5       HDR5A    0.530000E-01   1.00800           0   0.00000       0.00000    
     13249 IM1      359      IM1      C4       CD2R5B    1.73480       11.6110           0 -0.868000       1.30000    
     13250 IM1      359      IM1      DC4      DRUD     -1.61680      0.400000           0   0.00000       0.00000    
     13251 IM1      359      IM1      H6       HDR5B    0.730000E-01   1.00800           0   0.00000       0.00000    
     13252 IM1      359      IM1      N2       ND2R5B    1.59050       13.6070           0 -0.840000       1.00000    
     13253 IM1      359      IM1      DN2      DRUD     -1.59050      0.400000           0   0.00000       0.00000    
     13254 IM1      359      IM1      H7       DUMH      0.00000       1.00800           0   0.00000       0.00000    
     13255 IM1      359      IM1      LPN21    LPD     -0.474000       0.00000          -1   0.00000       0.00000    
     13256 IM1      360      IM1      C1       CD33G     1.64330       11.6110           0  -1.08100       1.00000    
     13257 IM1      360      IM1      DC1      DRUD     -1.80430      0.400000           0   0.00000       0.00000    
     13258 IM1      360      IM1      H1       HDA3A    0.940000E-01   1.00800           0   0.00000       0.00000    
     13259 IM1      360      IM1      H2       HDA3A    0.940000E-01   1.00800           0   0.00000       0.00000    
     13260 IM1      360      IM1      H3       HDA3A    0.940000E-01   1.00800           0   0.00000       0.00000    
     13261 IM1      360      IM1      N1       ND2R5A    1.92920       13.6070           0  -1.06300       1.30000    
     13262 IM1      360      IM1      DN1      DRUD     -1.78920      0.400000           0   0.00000       0.00000    
     13263 IM1      360      IM1      C2       CD2R5A    1.66810       11.6110           0  -1.37800       1.30000    
     13264 IM1      360      IM1      DC2      DRUD     -2.03710      0.400000           0   0.00000       0.00000    
     13265 IM1      360      IM1      H4       HDR5A    0.150000       1.00800           0   0.00000       0.00000    
     13266 IM1      360      IM1      C3       CD2R5A    2.22510       11.6110           0  -1.37800       1.30000    
     13267 IM1      360      IM1      DC3      DRUD     -2.03710      0.400000           0   0.00000       0.00000    
     13268 IM1      360      IM1      H5       HDR5A    0.530000E-01   1.00800           0   0.00000       0.00000    
     13269 IM1      360      IM1      C4       CD2R5B    1.73480       11.6110           0 -0.868000       1.30000    
     13270 IM1      360      IM1      DC4      DRUD     -1.61680      0.400000           0   0.00000       0.00000    
     13271 IM1      360      IM1      H6       HDR5B    0.730000E-01   1.00800           0   0.00000       0.00000    
     13272 IM1      360      IM1      N2       ND2R5B    1.59050       13.6070           0 -0.840000       1.00000    
     13273 IM1      360      IM1      DN2      DRUD     -1.59050      0.400000           0   0.00000       0.00000    
     13274 IM1      360      IM1      H7       DUMH      0.00000       1.00800           0   0.00000       0.00000    
     13275 IM1      360      IM1      LPN21    LPD     -0.474000       0.00000          -1   0.00000       0.00000    
     13276 IM1      361      IM1      C1       CD33G     1.64330       11.6110           0  -1.08100       1.00000    
     13277 IM1      361      IM1      DC1      DRUD     -1.80430      0.400000           0   0.00000       0.00000    
     13278 IM1      361      IM1      H1       HDA3A    0.940000E-01   1.00800           0   0.00000       0.00000    
     13279 IM1      361      IM1      H2       HDA3A    0.940000E-01   1.00800           0   0.00000       0.00000    
     13280 IM1      361      IM1      H3       HDA3A    0.940000E-01   1.00800           0   0.00000       0.00000    
     13281 IM1      361      IM1      N1       ND2R5A    1.92920       13.6070           0  -1.06300       1.30000    
     13282 IM1      361      IM1      DN1      DRUD     -1.78920      0.400000           0   0.00000       0.00000    
     13283 IM1      361      IM1      C2       CD2R5A    1.66810       11.6110           0  -1.37800       1.30000    
     13284 IM1      361      IM1      DC2      DRUD     -2.03710      0.400000           0   0.00000       0.00000    
     13285 IM1      361      IM1      H4       HDR5A    0.150000       1.00800           0   0.00000       0.00000    
     13286 IM1      361      IM1      C3       CD2R5A    2.22510       11.6110           0  -1.37800       1.30000    
     13287 IM1      361      IM1      DC3      DRUD     -2.03710      0.400000           0   0.00000       0.00000    
     13288 IM1      361      IM1      H5       HDR5A    0.530000E-01   1.00800           0   0.00000       0.00000    
     13289 IM1      361      IM1      C4       CD2R5B    1.73480       11.6110           0 -0.868000       1.30000    
     13290 IM1      361      IM1      DC4      DRUD     -1.61680      0.400000           0   0.00000       0.00000    
     13291 IM1      361      IM1      H6       HDR5B    0.730000E-01   1.00800           0   0.00000       0.00000    
     13292 IM1      361      IM1      N2       ND2R5B    1.59050       13.6070           0 -0.840000       1.00000    
     13293 IM1      361      IM1      DN2      DRUD     -1.59050      0.400000           0   0.00000       0.00000    
     13294 IM1      361      IM1      H7       DUMH      0.00000       1.00800           0   0.00000       0.00000    
     13295 IM1      361      IM1      LPN21    LPD     -0.474000       0.00000          -1   0.00000       0.00000    
     13296 IM1      362      IM1      C1       CD33G     1.64330       11.6110           0  -1.08100       1.00000    
     13297 IM1      362      IM1      DC1      DRUD     -1.80430      0.400000           0   0.00000       0.00000    
     13298 IM1      362      IM1      H1       HDA3A    0.940000E-01   1.00800           0   0.00000       0.00000    
     13299 IM1      362      IM1      H2       HDA3A    0.940000E-01   1.00800           0   0.00000       0.00000    
     13300 IM1      362      IM1      H3       HDA3A    0.940000E-01   1.00800           0   0.00000       0.00000    
     13301 IM1      362      IM1      N1       ND2R5A    1.92920       13.6070           0  -1.06300       1.30000    
     13302 IM1      362      IM1      DN1      DRUD     -1.78920      0.400000           0   0.00000       0.00000    
     13303 IM1      362      IM1      C2       CD2R5A    1.66810       11.6110           0  -1.37800       1.30000    
     13304 IM1      362      IM1      DC2      DRUD     -2.03710      0.400000           0   0.00000       0.00000    
     13305 IM1      362      IM1      H4       HDR5A    0.150000       1.00800           0   0.00000       0.00000    
     13306 IM1      362      IM1      C3       CD2R5A    2.22510       11.6110           0  -1.37800       1.30000    
     13307 IM1      362      IM1      DC3      DRUD     -2.03710      0.400000           0   0.00000       0.00000    
     13308 IM1      362      IM1      H5       HDR5A    0.530000E-01   1.00800           0   0.00000       0.00000    
     13309 IM1      362      IM1      C4       CD2R5B    1.73480       11.6110           0 -0.868000       1.30000    
     13310 IM1      362      IM1      DC4      DRUD     -1.61680      0.400000           0   0.00000       0.00000    
     13311 IM1      362      IM1      H6       HDR5B    0.730000E-01   1.00800           0   0.00000       0.00000    
     13312 IM1      362      IM1      N2       ND2R5B    1.59050       13.6070           0 -0.840000       1.00000    
     13313 IM1      362      IM1      DN2      DRUD     -1.59050      0.400000           0   0.00000       0.00000    
     13314 IM1      362      IM1      H7       DUMH      0.00000       1.00800           0   0.00000       0.00000    
     13315 IM1      362      IM1      LPN21    LPD     -0.474000       0.00000          -1   0.00000       0.00000    
     13316 IM1      363      IM1      C1       CD33G     1.64330       11.6110           0  -1.08100       1.00000    
     13317 IM1      363      IM1      DC1      DRUD     -1.80430      0.400000           0   0.00000       0.00000    
     13318 IM1      363      IM1      H1       HDA3A    0.940000E-01   1.00800           0   0.00000       0.00000    
     13319 IM1      363      IM1      H2       HDA3A    0.940000E-01   1.00800           0   0.00000       0.00000    
     13320 IM1      363      IM1      H3       HDA3A    0.940000E-01   1.00800           0   0.00000       0.00000    
     13321 IM1      363      IM1      N1       ND2R5A    1.92920       13.6070           0  -1.06300       1.30000    
     13322 IM1      363      IM1      DN1      DRUD     -1.78920      0.400000           0   0.00000       0.00000    
     13323 IM1      363      IM1      C2       CD2R5A    1.66810       11.6110           0  -1.37800       1.30000    
     13324 IM1      363      IM1      DC2      DRUD     -2.03710      0.400000           0   0.00000       0.00000    
     13325 IM1      363      IM1      H4       HDR5A    0.150000       1.00800           0   0.00000       0.00000    
     13326 IM1      363      IM1      C3       CD2R5A    2.22510       11.6110           0  -1.37800       1.30000    
     13327 IM1      363      IM1      DC3      DRUD     -2.03710      0.400000           0   0.00000       0.00000    
     13328 IM1      363      IM1      H5       HDR5A    0.530000E-01   1.00800           0   0.00000       0.00000    
     13329 IM1      363      IM1      C4       CD2R5B    1.73480       11.6110           0 -0.868000       1.30000    
     13330 IM1      363      IM1      DC4      DRUD     -1.61680      0.400000           0   0.00000       0.00000    
     13331 IM1      363      IM1      H6       HDR5B    0.730000E-01   1.00800           0   0.00000       0.00000    
     13332 IM1      363      IM1      N2       ND2R5B    1.59050       13.6070           0 -0.840000       1.00000    
     13333 IM1      363      IM1      DN2      DRUD     -1.59050      0.400000           0   0.00000       0.00000    
     13334 IM1      363      IM1      H7       DUMH      0.00000       1.00800           0   0.00000       0.00000    
     13335 IM1      363      IM1      LPN21    LPD     -0.474000       0.00000          -1   0.00000       0.00000    
     13336 IM1      364      IM1      C1       CD33G     1.64330       11.6110           0  -1.08100       1.00000    
     13337 IM1      364      IM1      DC1      DRUD     -1.80430      0.400000           0   0.00000       0.00000    
     13338 IM1      364      IM1      H1       HDA3A    0.940000E-01   1.00800           0   0.00000       0.00000    
     13339 IM1      364      IM1      H2       HDA3A    0.940000E-01   1.00800           0   0.00000       0.00000    
     13340 IM1      364      IM1      H3       HDA3A    0.940000E-01   1.00800           0   0.00000       0.00000    
     13341 IM1      364      IM1      N1       ND2R5A    1.92920       13.6070           0  -1.06300       1.30000    
     13342 IM1      364      IM1      DN1      DRUD     -1.78920      0.400000           0   0.00000       0.00000    
     13343 IM1      364      IM1      C2       CD2R5A    1.66810       11.6110           0  -1.37800       1.30000    
     13344 IM1      364      IM1      DC2      DRUD     -2.03710      0.400000           0   0.00000       0.00000    
     13345 IM1      364      IM1      H4       HDR5A    0.150000       1.00800           0   0.00000       0.00000    
     13346 IM1      364      IM1      C3       CD2R5A    2.22510       11.6110           0  -1.37800       1.30000    
     13347 IM1      364      IM1      DC3      DRUD     -2.03710      0.400000           0   0.00000       0.00000    
     13348 IM1      364      IM1      H5       HDR5A    0.530000E-01   1.00800           0   0.00000       0.00000    
     13349 IM1      364      IM1      C4       CD2R5B    1.73480       11.6110           0 -0.868000       1.30000    
     13350 IM1      364      IM1      DC4      DRUD     -1.61680      0.400000           0   0.00000       0.00000    
     13351 IM1      364      IM1      H6       HDR5B    0.730000E-01   1.00800           0   0.00000       0.00000    
     13352 IM1      364      IM1      N2       ND2R5B    1.59050       13.6070           0 -0.840000       1.00000    
     13353 IM1      364      IM1      DN2      DRUD     -1.59050      0.400000           0   0.00000       0.00000    
     13354 IM1      364      IM1      H7       DUMH      0.00000       1.00800           0   0.00000       0.00000    
     13355 IM1      364      IM1      LPN21    LPD     -0.474000       0.00000          -1   0.00000       0.00000    
     13356 IM1      365      IM1      C1       CD33G     1.64330       11.6110           0  -1.08100       1.00000    
     13357 IM1      365      IM1      DC1      DRUD     -1.80430      0.400000           0   0.00000       0.00000    
     13358 IM1      365      IM1      H1       HDA3A    0.940000E-01   1.00800           0   0.00000       0.00000    
     13359 IM1      365      IM1      H2       HDA3A    0.940000E-01   1.00800           0   0.00000       0.00000    
     13360 IM1      365      IM1      H3       HDA3A    0.940000E-01   1.00800           0   0.00000       0.00000    
     13361 IM1      365      IM1      N1       ND2R5A    1.92920       13.6070           0  -1.06300       1.30000    
     13362 IM1      365      IM1      DN1      DRUD     -1.78920      0.400000           0   0.00000       0.00000    
     13363 IM1      365      IM1      C2       CD2R5A    1.66810       11.6110           0  -1.37800       1.30000    
     13364 IM1      365      IM1      DC2      DRUD     -2.03710      0.400000           0   0.00000       0.00000    
     13365 IM1      365      IM1      H4       HDR5A    0.150000       1.00800           0   0.00000       0.00000    
     13366 IM1      365      IM1      C3       CD2R5A    2.22510       11.6110           0  -1.37800       1.30000    
     13367 IM1      365      IM1      DC3      DRUD     -2.03710      0.400000           0   0.00000       0.00000    
     13368 IM1      365      IM1      H5       HDR5A    0.530000E-01   1.00800           0   0.00000       0.00000    
     13369 IM1      365      IM1      C4       CD2R5B    1.73480       11.6110           0 -0.868000       1.30000    
     13370 IM1      365      IM1      DC4      DRUD     -1.61680      0.400000           0   0.00000       0.00000    
     13371 IM1      365      IM1      H6       HDR5B    0.730000E-01   1.00800           0   0.00000       0.00000    
     13372 IM1      365      IM1      N2       ND2R5B    1.59050       13.6070           0 -0.840000       1.00000    
     13373 IM1      365      IM1      DN2      DRUD     -1.59050      0.400000           0   0.00000       0.00000    
     13374 IM1      365      IM1      H7       DUMH      0.00000       1.00800           0   0.00000       0.00000    
     13375 IM1      365      IM1      LPN21    LPD     -0.474000       0.00000          -1   0.00000       0.00000    
     13376 BUTH     1        BUTH     C1       CD33A     2.05990       11.6110           0  -1.81190       1.18670    
     13377 BUTH     1        BUTH     DC1      DRUD     -2.33590      0.400000           0   0.00000       0.00000    
     13378 BUTH     1        BUTH     C2       CD32A     2.02070       11.6110           0  -1.59660       1.16930    
     13379 BUTH     1        BUTH     DC2      DRUD     -2.19270      0.400000           0   0.00000       0.00000    
     13380 BUTH     1        BUTH     C3       CD32A     1.98270       11.6110           0  -1.59660       1.16930    
     13381 BUTH     1        BUTH     DC3      DRUD     -2.19270      0.400000           0   0.00000       0.00000    
     13382 BUTH     1        BUTH     C4       CD2O3A    2.72690       11.6110           0  -1.26130       1.05430    
     13383 BUTH     1        BUTH     DC4      DRUD     -1.94890      0.400000           0   0.00000       0.00000    
     13384 BUTH     1        BUTH     O1       OD2C1A    1.46540       15.5994           0 -0.713100      0.569800    
     13385 BUTH     1        BUTH     DO1      DRUD     -1.46540      0.400000           0   0.00000       0.00000    
     13386 BUTH     1        BUTH     O2       OD31A     1.58240       15.5990           0 -0.831500      0.749400    
     13387 BUTH     1        BUTH     DO2      DRUD     -1.58240      0.400000           0   0.00000       0.00000    
     13388 BUTH     1        BUTH     H1       HDA3A    0.900000E-01   1.00800           0   0.00000       0.00000    
     13389 BUTH     1        BUTH     H2       HDA3A    0.900000E-01   1.00800           0   0.00000       0.00000    
     13390 BUTH     1        BUTH     H3       HDA3A    0.900000E-01   1.00800           0   0.00000       0.00000    
     13391 BUTH     1        BUTH     H4       HDA2A    0.900000E-01   1.00800           0   0.00000       0.00000    
     13392 BUTH     1        BUTH     H5       HDA2A    0.900000E-01   1.00800           0   0.00000       0.00000    
     13393 BUTH     1        BUTH     H6       HDA2A    0.900000E-01   1.00800           0   0.00000       0.00000    
     13394 BUTH     1        BUTH     H7       HDA2A    0.900000E-01   1.00800           0   0.00000       0.00000    
     13395 BUTH     1        BUTH     H8       HDP1A    0.430000       1.00800           0   0.00000       0.00000    
     13396 BUTH     1        BUTH     H9       DUMH      0.00000       1.00800           0   0.00000       0.00000    
     13397 BUTH     1        BUTH     LPO11    LPDO1   -0.287000       0.00000          -1   0.00000       0.00000    
     13398 BUTH     1        BUTH     LPO12    LPDO1   -0.288000       0.00000          -1   0.00000       0.00000    
     13399 BUTH     1        BUTH     LPO21    LPD     -0.302000       0.00000          -1   0.00000       0.00000    
     13400 BUTH     1        BUTH     LPO22    LPD     -0.303000       0.00000          -1   0.00000       0.00000    
     13401 BUTH     2        BUTH     C1       CD33A     2.05990       11.6110           0  -1.81190       1.18670    
     13402 BUTH     2        BUTH     DC1      DRUD     -2.33590      0.400000           0   0.00000       0.00000    
     13403 BUTH     2        BUTH     C2       CD32A     2.02070       11.6110           0  -1.59660       1.16930    
     13404 BUTH     2        BUTH     DC2      DRUD     -2.19270      0.400000           0   0.00000       0.00000    
     13405 BUTH     2        BUTH     C3       CD32A     1.98270       11.6110           0  -1.59660       1.16930    
     13406 BUTH     2        BUTH     DC3      DRUD     -2.19270      0.400000           0   0.00000       0.00000    
     13407 BUTH     2        BUTH     C4       CD2O3A    2.72690       11.6110           0  -1.26130       1.05430    
     13408 BUTH     2        BUTH     DC4      DRUD     -1.94890      0.400000           0   0.00000       0.00000    
     13409 BUTH     2        BUTH     O1       OD2C1A    1.46540       15.5994           0 -0.713100      0.569800    
     13410 BUTH     2        BUTH     DO1      DRUD     -1.46540      0.400000           0   0.00000       0.00000    
     13411 BUTH     2        BUTH     O2       OD31A     1.58240       15.5990           0 -0.831500      0.749400    
     13412 BUTH     2        BUTH     DO2      DRUD     -1.58240      0.400000           0   0.00000       0.00000    
     13413 BUTH     2        BUTH     H1       HDA3A    0.900000E-01   1.00800           0   0.00000       0.00000    
     13414 BUTH     2        BUTH     H2       HDA3A    0.900000E-01   1.00800           0   0.00000       0.00000    
     13415 BUTH     2        BUTH     H3       HDA3A    0.900000E-01   1.00800           0   0.00000       0.00000    
     13416 BUTH     2        BUTH     H4       HDA2A    0.900000E-01   1.00800           0   0.00000       0.00000    
     13417 BUTH     2        BUTH     H5       HDA2A    0.900000E-01   1.00800           0   0.00000       0.00000    
     13418 BUTH     2        BUTH     H6       HDA2A    0.900000E-01   1.00800           0   0.00000       0.00000    
     13419 BUTH     2        BUTH     H7       HDA2A    0.900000E-01   1.00800           0   0.00000       0.00000    
     13420 BUTH     2        BUTH     H8       HDP1A    0.430000       1.00800           0   0.00000       0.00000    
     13421 BUTH     2        BUTH     H9       DUMH      0.00000       1.00800           0   0.00000       0.00000    
     13422 BUTH     2        BUTH     LPO11    LPDO1   -0.287000       0.00000          -1   0.00000       0.00000    
     13423 BUTH     2        BUTH     LPO12    LPDO1   -0.288000       0.00000          -1   0.00000       0.00000    
     13424 BUTH     2        BUTH     LPO21    LPD     -0.302000       0.00000          -1   0.00000       0.00000    
     13425 BUTH     2        BUTH     LPO22    LPD     -0.303000       0.00000          -1   0.00000       0.00000    
     13426 BUTH     3        BUTH     C1       CD33A     2.05990       11.6110           0  -1.81190       1.18670    
     13427 BUTH     3        BUTH     DC1      DRUD     -2.33590      0.400000           0   0.00000       0.00000    
     13428 BUTH     3        BUTH     C2       CD32A     2.02070       11.6110           0  -1.59660       1.16930    
     13429 BUTH     3        BUTH     DC2      DRUD     -2.19270      0.400000           0   0.00000       0.00000    
     13430 BUTH     3        BUTH     C3       CD32A     1.98270       11.6110           0  -1.59660       1.16930    
     13431 BUTH     3        BUTH     DC3      DRUD     -2.19270      0.400000           0   0.00000       0.00000    
     13432 BUTH     3        BUTH     C4       CD2O3A    2.72690       11.6110           0  -1.26130       1.05430    
     13433 BUTH     3        BUTH     DC4      DRUD     -1.94890      0.400000           0   0.00000       0.00000    
     13434 BUTH     3        BUTH     O1       OD2C1A    1.46540       15.5994           0 -0.713100      0.569800    
     13435 BUTH     3        BUTH     DO1      DRUD     -1.46540      0.400000           0   0.00000       0.00000    
     13436 BUTH     3        BUTH     O2       OD31A     1.58240       15.5990           0 -0.831500      0.749400    
     13437 BUTH     3        BUTH     DO2      DRUD     -1.58240      0.400000           0   0.00000       0.00000    
     13438 BUTH     3        BUTH     H1       HDA3A    0.900000E-01   1.00800           0   0.00000       0.00000    
     13439 BUTH     3        BUTH     H2       HDA3A    0.900000E-01   1.00800           0   0.00000       0.00000    
     13440 BUTH     3        BUTH     H3       HDA3A    0.900000E-01   1.00800           0   0.00000       0.00000    
     13441 BUTH     3        BUTH     H4       HDA2A    0.900000E-01   1.00800           0   0.00000       0.00000    
     13442 BUTH     3        BUTH     H5       HDA2A    0.900000E-01   1.00800           0   0.00000       0.00000    
     13443 BUTH     3        BUTH     H6       HDA2A    0.900000E-01   1.00800           0   0.00000       0.00000    
     13444 BUTH     3        BUTH     H7       HDA2A    0.900000E-01   1.00800           0   0.00000       0.00000    
     13445 BUTH     3        BUTH     H8       HDP1A    0.430000       1.00800           0   0.00000       0.00000    
     13446 BUTH     3        BUTH     H9       DUMH      0.00000       1.00800           0   0.00000       0.00000    
     13447 BUTH     3        BUTH     LPO11    LPDO1   -0.287000       0.00000          -1   0.00000       0.00000    
     13448 BUTH     3        BUTH     LPO12    LPDO1   -0.288000       0.00000          -1   0.00000       0.00000    
     13449 BUTH     3        BUTH     LPO21    LPD     -0.302000       0.00000          -1   0.00000       0.00000    
     13450 BUTH     3        BUTH     LPO22    LPD     -0.303000       0.00000          -1   0.00000       0.00000    
     13451 BUTH     4        BUTH     C1       CD33A     2.05990       11.6110           0  -1.81190       1.18670    
     13452 BUTH     4        BUTH     DC1      DRUD     -2.33590      0.400000           0   0.00000       0.00000    
     13453 BUTH     4        BUTH     C2       CD32A     2.02070       11.6110           0  -1.59660       1.16930    
     13454 BUTH     4        BUTH     DC2      DRUD     -2.19270      0.400000           0   0.00000       0.00000    
     13455 BUTH     4        BUTH     C3       CD32A     1.98270       11.6110           0  -1.59660       1.16930    
     13456 BUTH     4        BUTH     DC3      DRUD     -2.19270      0.400000           0   0.00000       0.00000    
     13457 BUTH     4        BUTH     C4       CD2O3A    2.72690       11.6110           0  -1.26130       1.05430    
     13458 BUTH     4        BUTH     DC4      DRUD     -1.94890      0.400000           0   0.00000       0.00000    
     13459 BUTH     4        BUTH     O1       OD2C1A    1.46540       15.5994           0 -0.713100      0.569800    
     13460 BUTH     4        BUTH     DO1      DRUD     -1.46540      0.400000           0   0.00000       0.00000    
     13461 BUTH     4        BUTH     O2       OD31A     1.58240       15.5990           0 -0.831500      0.749400    
     13462 BUTH     4        BUTH     DO2      DRUD     -1.58240      0.400000           0   0.00000       0.00000    
     13463 BUTH     4        BUTH     H1       HDA3A    0.900000E-01   1.00800           0   0.00000       0.00000    
     13464 BUTH     4        BUTH     H2       HDA3A    0.900000E-01   1.00800           0   0.00000       0.00000    
     13465 BUTH     4        BUTH     H3       HDA3A    0.900000E-01   1.00800           0   0.00000       0.00000    
     13466 BUTH     4        BUTH     H4       HDA2A    0.900000E-01   1.00800           0   0.00000       0.00000    
     13467 BUTH     4        BUTH     H5       HDA2A    0.900000E-01   1.00800           0   0.00000       0.00000    
     13468 BUTH     4        BUTH     H6       HDA2A    0.900000E-01   1.00800           0   0.00000       0.00000    
     13469 BUTH     4        BUTH     H7       HDA2A    0.900000E-01   1.00800           0   0.00000       0.00000    
     13470 BUTH     4        BUTH     H8       HDP1A    0.430000       1.00800           0   0.00000       0.00000    
     13471 BUTH     4        BUTH     H9       DUMH      0.00000       1.00800           0   0.00000       0.00000    
     13472 BUTH     4        BUTH     LPO11    LPDO1   -0.287000       0.00000          -1   0.00000       0.00000    
     13473 BUTH     4        BUTH     LPO12    LPDO1   -0.288000       0.00000          -1   0.00000       0.00000    
     13474 BUTH     4        BUTH     LPO21    LPD     -0.302000       0.00000          -1   0.00000       0.00000    
     13475 BUTH     4        BUTH     LPO22    LPD     -0.303000       0.00000          -1   0.00000       0.00000    
     13476 BUTH     5        BUTH     C1       CD33A     2.05990       11.6110           0  -1.81190       1.18670    
     13477 BUTH     5        BUTH     DC1      DRUD     -2.33590      0.400000           0   0.00000       0.00000    
     13478 BUTH     5        BUTH     C2       CD32A     2.02070       11.6110           0  -1.59660       1.16930    
     13479 BUTH     5        BUTH     DC2      DRUD     -2.19270      0.400000           0   0.00000       0.00000    
     13480 BUTH     5        BUTH     C3       CD32A     1.98270       11.6110           0  -1.59660       1.16930    
     13481 BUTH     5        BUTH     DC3      DRUD     -2.19270      0.400000           0   0.00000       0.00000    
     13482 BUTH     5        BUTH     C4       CD2O3A    2.72690       11.6110           0  -1.26130       1.05430    
     13483 BUTH     5        BUTH     DC4      DRUD     -1.94890      0.400000           0   0.00000       0.00000    
     13484 BUTH     5        BUTH     O1       OD2C1A    1.46540       15.5994           0 -0.713100      0.569800    
     13485 BUTH     5        BUTH     DO1      DRUD     -1.46540      0.400000           0   0.00000       0.00000    
     13486 BUTH     5        BUTH     O2       OD31A     1.58240       15.5990           0 -0.831500      0.749400    
     13487 BUTH     5        BUTH     DO2      DRUD     -1.58240      0.400000           0   0.00000       0.00000    
     13488 BUTH     5        BUTH     H1       HDA3A    0.900000E-01   1.00800           0   0.00000       0.00000    
     13489 BUTH     5        BUTH     H2       HDA3A    0.900000E-01   1.00800           0   0.00000       0.00000    
     13490 BUTH     5        BUTH     H3       HDA3A    0.900000E-01   1.00800           0   0.00000       0.00000    
     13491 BUTH     5        BUTH     H4       HDA2A    0.900000E-01   1.00800           0   0.00000       0.00000    
     13492 BUTH     5        BUTH     H5       HDA2A    0.900000E-01   1.00800           0   0.00000       0.00000    
     13493 BUTH     5        BUTH     H6       HDA2A    0.900000E-01   1.00800           0   0.00000       0.00000    
     13494 BUTH     5        BUTH     H7       HDA2A    0.900000E-01   1.00800           0   0.00000       0.00000    
     13495 BUTH     5        BUTH     H8       HDP1A    0.430000       1.00800           0   0.00000       0.00000    
     13496 BUTH     5        BUTH     H9       DUMH      0.00000       1.00800           0   0.00000       0.00000    
     13497 BUTH     5        BUTH     LPO11    LPDO1   -0.287000       0.00000          -1   0.00000       0.00000    
     13498 BUTH     5        BUTH     LPO12    LPDO1   -0.288000       0.00000          -1   0.00000       0.00000    
     13499 BUTH     5        BUTH     LPO21    LPD     -0.302000       0.00000          -1   0.00000       0.00000    
     13500 BUTH     5        BUTH     LPO22    LPD     -0.303000       0.00000          -1   0.00000       0.00000    
     13501 BUTH     6        BUTH     C1       CD33A     2.05990       11.6110           0  -1.81190       1.18670    
     13502 BUTH     6        BUTH     DC1      DRUD     -2.33590      0.400000           0   0.00000       0.00000    
     13503 BUTH     6        BUTH     C2       CD32A     2.02070       11.6110           0  -1.59660       1.16930    
     13504 BUTH     6        BUTH     DC2      DRUD     -2.19270      0.400000           0   0.00000       0.00000    
     13505 BUTH     6        BUTH     C3       CD32A     1.98270       11.6110           0  -1.59660       1.16930    
     13506 BUTH     6        BUTH     DC3      DRUD     -2.19270      0.400000           0   0.00000       0.00000    
     13507 BUTH     6        BUTH     C4       CD2O3A    2.72690       11.6110           0  -1.26130       1.05430    
     13508 BUTH     6        BUTH     DC4      DRUD     -1.94890      0.400000           0   0.00000       0.00000    
     13509 BUTH     6        BUTH     O1       OD2C1A    1.46540       15.5994           0 -0.713100      0.569800    
     13510 BUTH     6        BUTH     DO1      DRUD     -1.46540      0.400000           0   0.00000       0.00000    
     13511 BUTH     6        BUTH     O2       OD31A     1.58240       15.5990           0 -0.831500      0.749400    
     13512 BUTH     6        BUTH     DO2      DRUD     -1.58240      0.400000           0   0.00000       0.00000    
     13513 BUTH     6        BUTH     H1       HDA3A    0.900000E-01   1.00800           0   0.00000       0.00000    
     13514 BUTH     6        BUTH     H2       HDA3A    0.900000E-01   1.00800           0   0.00000       0.00000    
     13515 BUTH     6        BUTH     H3       HDA3A    0.900000E-01   1.00800           0   0.00000       0.00000    
     13516 BUTH     6        BUTH     H4       HDA2A    0.900000E-01   1.00800           0   0.00000       0.00000    
     13517 BUTH     6        BUTH     H5       HDA2A    0.900000E-01   1.00800           0   0.00000       0.00000    
     13518 BUTH     6        BUTH     H6       HDA2A    0.900000E-01   1.00800           0   0.00000       0.00000    
     13519 BUTH     6        BUTH     H7       HDA2A    0.900000E-01   1.00800           0   0.00000       0.00000    
     13520 BUTH     6        BUTH     H8       HDP1A    0.430000       1.00800           0   0.00000       0.00000    
     13521 BUTH     6        BUTH     H9       DUMH      0.00000       1.00800           0   0.00000       0.00000    
     13522 BUTH     6        BUTH     LPO11    LPDO1   -0.287000       0.00000          -1   0.00000       0.00000    
     13523 BUTH     6        BUTH     LPO12    LPDO1   -0.288000       0.00000          -1   0.00000       0.00000    
     13524 BUTH     6        BUTH     LPO21    LPD     -0.302000       0.00000          -1   0.00000       0.00000    
     13525 BUTH     6        BUTH     LPO22    LPD     -0.303000       0.00000          -1   0.00000       0.00000    
     13526 BUTH     7        BUTH     C1       CD33A     2.05990       11.6110           0  -1.81190       1.18670    
     13527 BUTH     7        BUTH     DC1      DRUD     -2.33590      0.400000           0   0.00000       0.00000    
     13528 BUTH     7        BUTH     C2       CD32A     2.02070       11.6110           0  -1.59660       1.16930    
     13529 BUTH     7        BUTH     DC2      DRUD     -2.19270      0.400000           0   0.00000       0.00000    
     13530 BUTH     7        BUTH     C3       CD32A     1.98270       11.6110           0  -1.59660       1.16930    
     13531 BUTH     7        BUTH     DC3      DRUD     -2.19270      0.400000           0   0.00000       0.00000    
     13532 BUTH     7        BUTH     C4       CD2O3A    2.72690       11.6110           0  -1.26130       1.05430    
     13533 BUTH     7        BUTH     DC4      DRUD     -1.94890      0.400000           0   0.00000       0.00000    
     13534 BUTH     7        BUTH     O1       OD2C1A    1.46540       15.5994           0 -0.713100      0.569800    
     13535 BUTH     7        BUTH     DO1      DRUD     -1.46540      0.400000           0   0.00000       0.00000    
     13536 BUTH     7        BUTH     O2       OD31A     1.58240       15.5990           0 -0.831500      0.749400    
     13537 BUTH     7        BUTH     DO2      DRUD     -1.58240      0.400000           0   0.00000       0.00000    
     13538 BUTH     7        BUTH     H1       HDA3A    0.900000E-01   1.00800           0   0.00000       0.00000    
     13539 BUTH     7        BUTH     H2       HDA3A    0.900000E-01   1.00800           0   0.00000       0.00000    
     13540 BUTH     7        BUTH     H3       HDA3A    0.900000E-01   1.00800           0   0.00000       0.00000    
     13541 BUTH     7        BUTH     H4       HDA2A    0.900000E-01   1.00800           0   0.00000       0.00000    
     13542 BUTH     7        BUTH     H5       HDA2A    0.900000E-01   1.00800           0   0.00000       0.00000    
     13543 BUTH     7        BUTH     H6       HDA2A    0.900000E-01   1.00800           0   0.00000       0.00000    
     13544 BUTH     7        BUTH     H7       HDA2A    0.900000E-01   1.00800           0   0.00000       0.00000    
     13545 BUTH     7        BUTH     H8       HDP1A    0.430000       1.00800           0   0.00000       0.00000    
     13546 BUTH     7        BUTH     H9       DUMH      0.00000       1.00800           0   0.00000       0.00000    
     13547 BUTH     7        BUTH     LPO11    LPDO1   -0.287000       0.00000          -1   0.00000       0.00000    
     13548 BUTH     7        BUTH     LPO12    LPDO1   -0.288000       0.00000          -1   0.00000       0.00000    
     13549 BUTH     7        BUTH     LPO21    LPD     -0.302000       0.00000          -1   0.00000       0.00000    
     13550 BUTH     7        BUTH     LPO22    LPD     -0.303000       0.00000          -1   0.00000       0.00000    
     13551 BUTH     8        BUTH     C1       CD33A     2.05990       11.6110           0  -1.81190       1.18670    
     13552 BUTH     8        BUTH     DC1      DRUD     -2.33590      0.400000           0   0.00000       0.00000    
     13553 BUTH     8        BUTH     C2       CD32A     2.02070       11.6110           0  -1.59660       1.16930    
     13554 BUTH     8        BUTH     DC2      DRUD     -2.19270      0.400000           0   0.00000       0.00000    
     13555 BUTH     8        BUTH     C3       CD32A     1.98270       11.6110           0  -1.59660       1.16930    
     13556 BUTH     8        BUTH     DC3      DRUD     -2.19270      0.400000           0   0.00000       0.00000    
     13557 BUTH     8        BUTH     C4       CD2O3A    2.72690       11.6110           0  -1.26130       1.05430    
     13558 BUTH     8        BUTH     DC4      DRUD     -1.94890      0.400000           0   0.00000       0.00000    
     13559 BUTH     8        BUTH     O1       OD2C1A    1.46540       15.5994           0 -0.713100      0.569800    
     13560 BUTH     8        BUTH     DO1      DRUD     -1.46540      0.400000           0   0.00000       0.00000    
     13561 BUTH     8        BUTH     O2       OD31A     1.58240       15.5990           0 -0.831500      0.749400    
     13562 BUTH     8        BUTH     DO2      DRUD     -1.58240      0.400000           0   0.00000       0.00000    
     13563 BUTH     8        BUTH     H1       HDA3A    0.900000E-01   1.00800           0   0.00000       0.00000    
     13564 BUTH     8        BUTH     H2       HDA3A    0.900000E-01   1.00800           0   0.00000       0.00000    
     13565 BUTH     8        BUTH     H3       HDA3A    0.900000E-01   1.00800           0   0.00000       0.00000    
     13566 BUTH     8        BUTH     H4       HDA2A    0.900000E-01   1.00800           0   0.00000       0.00000    
     13567 BUTH     8        BUTH     H5       HDA2A    0.900000E-01   1.00800           0   0.00000       0.00000    
     13568 BUTH     8        BUTH     H6       HDA2A    0.900000E-01   1.00800           0   0.00000       0.00000    
     13569 BUTH     8        BUTH     H7       HDA2A    0.900000E-01   1.00800           0   0.00000       0.00000    
     13570 BUTH     8        BUTH     H8       HDP1A    0.430000       1.00800           0   0.00000       0.00000    
     13571 BUTH     8        BUTH     H9       DUMH      0.00000       1.00800           0   0.00000       0.00000    
     13572 BUTH     8        BUTH     LPO11    LPDO1   -0.287000       0.00000          -1   0.00000       0.00000    
     13573 BUTH     8        BUTH     LPO12    LPDO1   -0.288000       0.00000          -1   0.00000       0.00000    
     13574 BUTH     8        BUTH     LPO21    LPD     -0.302000       0.00000          -1   0.00000       0.00000    
     13575 BUTH     8        BUTH     LPO22    LPD     -0.303000       0.00000          -1   0.00000       0.00000    
     13576 BUTH     9        BUTH     C1       CD33A     2.05990       11.6110           0  -1.81190       1.18670    
     13577 BUTH     9        BUTH     DC1      DRUD     -2.33590      0.400000           0   0.00000       0.00000    
     13578 BUTH     9        BUTH     C2       CD32A     2.02070       11.6110           0  -1.59660       1.16930    
     13579 BUTH     9        BUTH     DC2      DRUD     -2.19270      0.400000           0   0.00000       0.00000    
     13580 BUTH     9        BUTH     C3       CD32A     1.98270       11.6110           0  -1.59660       1.16930    
     13581 BUTH     9        BUTH     DC3      DRUD     -2.19270      0.400000           0   0.00000       0.00000    
     13582 BUTH     9        BUTH     C4       CD2O3A    2.72690       11.6110           0  -1.26130       1.05430    
     13583 BUTH     9        BUTH     DC4      DRUD     -1.94890      0.400000           0   0.00000       0.00000    
     13584 BUTH     9        BUTH     O1       OD2C1A    1.46540       15.5994           0 -0.713100      0.569800    
     13585 BUTH     9        BUTH     DO1      DRUD     -1.46540      0.400000           0   0.00000       0.00000    
     13586 BUTH     9        BUTH     O2       OD31A     1.58240       15.5990           0 -0.831500      0.749400    
     13587 BUTH     9        BUTH     DO2      DRUD     -1.58240      0.400000           0   0.00000       0.00000    
     13588 BUTH     9        BUTH     H1       HDA3A    0.900000E-01   1.00800           0   0.00000       0.00000    
     13589 BUTH     9        BUTH     H2       HDA3A    0.900000E-01   1.00800           0   0.00000       0.00000    
     13590 BUTH     9        BUTH     H3       HDA3A    0.900000E-01   1.00800           0   0.00000       0.00000    
     13591 BUTH     9        BUTH     H4       HDA2A    0.900000E-01   1.00800           0   0.00000       0.00000    
     13592 BUTH     9        BUTH     H5       HDA2A    0.900000E-01   1.00800           0   0.00000       0.00000    
     13593 BUTH     9        BUTH     H6       HDA2A    0.900000E-01   1.00800           0   0.00000       0.00000    
     13594 BUTH     9        BUTH     H7       HDA2A    0.900000E-01   1.00800           0   0.00000       0.00000    
     13595 BUTH     9        BUTH     H8       HDP1A    0.430000       1.00800           0   0.00000       0.00000    
     13596 BUTH     9        BUTH     H9       DUMH      0.00000       1.00800           0   0.00000       0.00000    
     13597 BUTH     9        BUTH     LPO11    LPDO1   -0.287000       0.00000          -1   0.00000       0.00000    
     13598 BUTH     9        BUTH     LPO12    LPDO1   -0.288000       0.00000          -1   0.00000       0.00000    
     13599 BUTH     9        BUTH     LPO21    LPD     -0.302000       0.00000          -1   0.00000       0.00000    
     13600 BUTH     9        BUTH     LPO22    LPD     -0.303000       0.00000          -1   0.00000       0.00000    
     13601 BUTH     10       BUTH     C1       CD33A     2.05990       11.6110           0  -1.81190       1.18670    
     13602 BUTH     10       BUTH     DC1      DRUD     -2.33590      0.400000           0   0.00000       0.00000    
     13603 BUTH     10       BUTH     C2       CD32A     2.02070       11.6110           0  -1.59660       1.16930    
     13604 BUTH     10       BUTH     DC2      DRUD     -2.19270      0.400000           0   0.00000       0.00000    
     13605 BUTH     10       BUTH     C3       CD32A     1.98270       11.6110           0  -1.59660       1.16930    
     13606 BUTH     10       BUTH     DC3      DRUD     -2.19270      0.400000           0   0.00000       0.00000    
     13607 BUTH     10       BUTH     C4       CD2O3A    2.72690       11.6110           0  -1.26130       1.05430    
     13608 BUTH     10       BUTH     DC4      DRUD     -1.94890      0.400000           0   0.00000       0.00000    
     13609 BUTH     10       BUTH     O1       OD2C1A    1.46540       15.5994           0 -0.713100      0.569800    
     13610 BUTH     10       BUTH     DO1      DRUD     -1.46540      0.400000           0   0.00000       0.00000    
     13611 BUTH     10       BUTH     O2       OD31A     1.58240       15.5990           0 -0.831500      0.749400    
     13612 BUTH     10       BUTH     DO2      DRUD     -1.58240      0.400000           0   0.00000       0.00000    
     13613 BUTH     10       BUTH     H1       HDA3A    0.900000E-01   1.00800           0   0.00000       0.00000    
     13614 BUTH     10       BUTH     H2       HDA3A    0.900000E-01   1.00800           0   0.00000       0.00000    
     13615 BUTH     10       BUTH     H3       HDA3A    0.900000E-01   1.00800           0   0.00000       0.00000    
     13616 BUTH     10       BUTH     H4       HDA2A    0.900000E-01   1.00800           0   0.00000       0.00000    
     13617 BUTH     10       BUTH     H5       HDA2A    0.900000E-01   1.00800           0   0.00000       0.00000    
     13618 BUTH     10       BUTH     H6       HDA2A    0.900000E-01   1.00800           0   0.00000       0.00000    
     13619 BUTH     10       BUTH     H7       HDA2A    0.900000E-01   1.00800           0   0.00000       0.00000    
     13620 BUTH     10       BUTH     H8       HDP1A    0.430000       1.00800           0   0.00000       0.00000    
     13621 BUTH     10       BUTH     H9       DUMH      0.00000       1.00800           0   0.00000       0.00000    
     13622 BUTH     10       BUTH     LPO11    LPDO1   -0.287000       0.00000          -1   0.00000       0.00000    
     13623 BUTH     10       BUTH     LPO12    LPDO1   -0.288000       0.00000          -1   0.00000       0.00000    
     13624 BUTH     10       BUTH     LPO21    LPD     -0.302000       0.00000          -1   0.00000       0.00000    
     13625 BUTH     10       BUTH     LPO22    LPD     -0.303000       0.00000          -1   0.00000       0.00000    
     13626 BUTH     11       BUTH     C1       CD33A     2.05990       11.6110           0  -1.81190       1.18670    
     13627 BUTH     11       BUTH     DC1      DRUD     -2.33590      0.400000           0   0.00000       0.00000    
     13628 BUTH     11       BUTH     C2       CD32A     2.02070       11.6110           0  -1.59660       1.16930    
     13629 BUTH     11       BUTH     DC2      DRUD     -2.19270      0.400000           0   0.00000       0.00000    
     13630 BUTH     11       BUTH     C3       CD32A     1.98270       11.6110           0  -1.59660       1.16930    
     13631 BUTH     11       BUTH     DC3      DRUD     -2.19270      0.400000           0   0.00000       0.00000    
     13632 BUTH     11       BUTH     C4       CD2O3A    2.72690       11.6110           0  -1.26130       1.05430    
     13633 BUTH     11       BUTH     DC4      DRUD     -1.94890      0.400000           0   0.00000       0.00000    
     13634 BUTH     11       BUTH     O1       OD2C1A    1.46540       15.5994           0 -0.713100      0.569800    
     13635 BUTH     11       BUTH     DO1      DRUD     -1.46540      0.400000           0   0.00000       0.00000    
     13636 BUTH     11       BUTH     O2       OD31A     1.58240       15.5990           0 -0.831500      0.749400    
     13637 BUTH     11       BUTH     DO2      DRUD     -1.58240      0.400000           0   0.00000       0.00000    
     13638 BUTH     11       BUTH     H1       HDA3A    0.900000E-01   1.00800           0   0.00000       0.00000    
     13639 BUTH     11       BUTH     H2       HDA3A    0.900000E-01   1.00800           0   0.00000       0.00000    
     13640 BUTH     11       BUTH     H3       HDA3A    0.900000E-01   1.00800           0   0.00000       0.00000    
     13641 BUTH     11       BUTH     H4       HDA2A    0.900000E-01   1.00800           0   0.00000       0.00000    
     13642 BUTH     11       BUTH     H5       HDA2A    0.900000E-01   1.00800           0   0.00000       0.00000    
     13643 BUTH     11       BUTH     H6       HDA2A    0.900000E-01   1.00800           0   0.00000       0.00000    
     13644 BUTH     11       BUTH     H7       HDA2A    0.900000E-01   1.00800           0   0.00000       0.00000    
     13645 BUTH     11       BUTH     H8       HDP1A    0.430000       1.00800           0   0.00000       0.00000    
     13646 BUTH     11       BUTH     H9       DUMH      0.00000       1.00800           0   0.00000       0.00000    
     13647 BUTH     11       BUTH     LPO11    LPDO1   -0.287000       0.00000          -1   0.00000       0.00000    
     13648 BUTH     11       BUTH     LPO12    LPDO1   -0.288000       0.00000          -1   0.00000       0.00000    
     13649 BUTH     11       BUTH     LPO21    LPD     -0.302000       0.00000          -1   0.00000       0.00000    
     13650 BUTH     11       BUTH     LPO22    LPD     -0.303000       0.00000          -1   0.00000       0.00000    
     13651 BUTH     12       BUTH     C1       CD33A     2.05990       11.6110           0  -1.81190       1.18670    
     13652 BUTH     12       BUTH     DC1      DRUD     -2.33590      0.400000           0   0.00000       0.00000    
     13653 BUTH     12       BUTH     C2       CD32A     2.02070       11.6110           0  -1.59660       1.16930    
     13654 BUTH     12       BUTH     DC2      DRUD     -2.19270      0.400000           0   0.00000       0.00000    
     13655 BUTH     12       BUTH     C3       CD32A     1.98270       11.6110           0  -1.59660       1.16930    
     13656 BUTH     12       BUTH     DC3      DRUD     -2.19270      0.400000           0   0.00000       0.00000    
     13657 BUTH     12       BUTH     C4       CD2O3A    2.72690       11.6110           0  -1.26130       1.05430    
     13658 BUTH     12       BUTH     DC4      DRUD     -1.94890      0.400000           0   0.00000       0.00000    
     13659 BUTH     12       BUTH     O1       OD2C1A    1.46540       15.5994           0 -0.713100      0.569800    
     13660 BUTH     12       BUTH     DO1      DRUD     -1.46540      0.400000           0   0.00000       0.00000    
     13661 BUTH     12       BUTH     O2       OD31A     1.58240       15.5990           0 -0.831500      0.749400    
     13662 BUTH     12       BUTH     DO2      DRUD     -1.58240      0.400000           0   0.00000       0.00000    
     13663 BUTH     12       BUTH     H1       HDA3A    0.900000E-01   1.00800           0   0.00000       0.00000    
     13664 BUTH     12       BUTH     H2       HDA3A    0.900000E-01   1.00800           0   0.00000       0.00000    
     13665 BUTH     12       BUTH     H3       HDA3A    0.900000E-01   1.00800           0   0.00000       0.00000    
     13666 BUTH     12       BUTH     H4       HDA2A    0.900000E-01   1.00800           0   0.00000       0.00000    
     13667 BUTH     12       BUTH     H5       HDA2A    0.900000E-01   1.00800           0   0.00000       0.00000    
     13668 BUTH     12       BUTH     H6       HDA2A    0.900000E-01   1.00800           0   0.00000       0.00000    
     13669 BUTH     12       BUTH     H7       HDA2A    0.900000E-01   1.00800           0   0.00000       0.00000    
     13670 BUTH     12       BUTH     H8       HDP1A    0.430000       1.00800           0   0.00000       0.00000    
     13671 BUTH     12       BUTH     H9       DUMH      0.00000       1.00800           0   0.00000       0.00000    
     13672 BUTH     12       BUTH     LPO11    LPDO1   -0.287000       0.00000          -1   0.00000       0.00000    
     13673 BUTH     12       BUTH     LPO12    LPDO1   -0.288000       0.00000          -1   0.00000       0.00000    
     13674 BUTH     12       BUTH     LPO21    LPD     -0.302000       0.00000          -1   0.00000       0.00000    
     13675 BUTH     12       BUTH     LPO22    LPD     -0.303000       0.00000          -1   0.00000       0.00000    
     13676 BUTH     13       BUTH     C1       CD33A     2.05990       11.6110           0  -1.81190       1.18670    
     13677 BUTH     13       BUTH     DC1      DRUD     -2.33590      0.400000           0   0.00000       0.00000    
     13678 BUTH     13       BUTH     C2       CD32A     2.02070       11.6110           0  -1.59660       1.16930    
     13679 BUTH     13       BUTH     DC2      DRUD     -2.19270      0.400000           0   0.00000       0.00000    
     13680 BUTH     13       BUTH     C3       CD32A     1.98270       11.6110           0  -1.59660       1.16930    
     13681 BUTH     13       BUTH     DC3      DRUD     -2.19270      0.400000           0   0.00000       0.00000    
     13682 BUTH     13       BUTH     C4       CD2O3A    2.72690       11.6110           0  -1.26130       1.05430    
     13683 BUTH     13       BUTH     DC4      DRUD     -1.94890      0.400000           0   0.00000       0.00000    
     13684 BUTH     13       BUTH     O1       OD2C1A    1.46540       15.5994           0 -0.713100      0.569800    
     13685 BUTH     13       BUTH     DO1      DRUD     -1.46540      0.400000           0   0.00000       0.00000    
     13686 BUTH     13       BUTH     O2       OD31A     1.58240       15.5990           0 -0.831500      0.749400    
     13687 BUTH     13       BUTH     DO2      DRUD     -1.58240      0.400000           0   0.00000       0.00000    
     13688 BUTH     13       BUTH     H1       HDA3A    0.900000E-01   1.00800           0   0.00000       0.00000    
     13689 BUTH     13       BUTH     H2       HDA3A    0.900000E-01   1.00800           0   0.00000       0.00000    
     13690 BUTH     13       BUTH     H3       HDA3A    0.900000E-01   1.00800           0   0.00000       0.00000    
     13691 BUTH     13       BUTH     H4       HDA2A    0.900000E-01   1.00800           0   0.00000       0.00000    
     13692 BUTH     13       BUTH     H5       HDA2A    0.900000E-01   1.00800           0   0.00000       0.00000    
     13693 BUTH     13       BUTH     H6       HDA2A    0.900000E-01   1.00800           0   0.00000       0.00000    
     13694 BUTH     13       BUTH     H7       HDA2A    0.900000E-01   1.00800           0   0.00000       0.00000    
     13695 BUTH     13       BUTH     H8       HDP1A    0.430000       1.00800           0   0.00000       0.00000    
     13696 BUTH     13       BUTH     H9       DUMH      0.00000       1.00800           0   0.00000       0.00000    
     13697 BUTH     13       BUTH     LPO11    LPDO1   -0.287000       0.00000          -1   0.00000       0.00000    
     13698 BUTH     13       BUTH     LPO12    LPDO1   -0.288000       0.00000          -1   0.00000       0.00000    
     13699 BUTH     13       BUTH     LPO21    LPD     -0.302000       0.00000          -1   0.00000       0.00000    
     13700 BUTH     13       BUTH     LPO22    LPD     -0.303000       0.00000          -1   0.00000       0.00000    
     13701 BUTH     14       BUTH     C1       CD33A     2.05990       11.6110           0  -1.81190       1.18670    
     13702 BUTH     14       BUTH     DC1      DRUD     -2.33590      0.400000           0   0.00000       0.00000    
     13703 BUTH     14       BUTH     C2       CD32A     2.02070       11.6110           0  -1.59660       1.16930    
     13704 BUTH     14       BUTH     DC2      DRUD     -2.19270      0.400000           0   0.00000       0.00000    
     13705 BUTH     14       BUTH     C3       CD32A     1.98270       11.6110           0  -1.59660       1.16930    
     13706 BUTH     14       BUTH     DC3      DRUD     -2.19270      0.400000           0   0.00000       0.00000    
     13707 BUTH     14       BUTH     C4       CD2O3A    2.72690       11.6110           0  -1.26130       1.05430    
     13708 BUTH     14       BUTH     DC4      DRUD     -1.94890      0.400000           0   0.00000       0.00000    
     13709 BUTH     14       BUTH     O1       OD2C1A    1.46540       15.5994           0 -0.713100      0.569800    
     13710 BUTH     14       BUTH     DO1      DRUD     -1.46540      0.400000           0   0.00000       0.00000    
     13711 BUTH     14       BUTH     O2       OD31A     1.58240       15.5990           0 -0.831500      0.749400    
     13712 BUTH     14       BUTH     DO2      DRUD     -1.58240      0.400000           0   0.00000       0.00000    
     13713 BUTH     14       BUTH     H1       HDA3A    0.900000E-01   1.00800           0   0.00000       0.00000    
     13714 BUTH     14       BUTH     H2       HDA3A    0.900000E-01   1.00800           0   0.00000       0.00000    
     13715 BUTH     14       BUTH     H3       HDA3A    0.900000E-01   1.00800           0   0.00000       0.00000    
     13716 BUTH     14       BUTH     H4       HDA2A    0.900000E-01   1.00800           0   0.00000       0.00000    
     13717 BUTH     14       BUTH     H5       HDA2A    0.900000E-01   1.00800           0   0.00000       0.00000    
     13718 BUTH     14       BUTH     H6       HDA2A    0.900000E-01   1.00800           0   0.00000       0.00000    
     13719 BUTH     14       BUTH     H7       HDA2A    0.900000E-01   1.00800           0   0.00000       0.00000    
     13720 BUTH     14       BUTH     H8       HDP1A    0.430000       1.00800           0   0.00000       0.00000    
     13721 BUTH     14       BUTH     H9       DUMH      0.00000       1.00800           0   0.00000       0.00000    
     13722 BUTH     14       BUTH     LPO11    LPDO1   -0.287000       0.00000          -1   0.00000       0.00000    
     13723 BUTH     14       BUTH     LPO12    LPDO1   -0.288000       0.00000          -1   0.00000       0.00000    
     13724 BUTH     14       BUTH     LPO21    LPD     -0.302000       0.00000          -1   0.00000       0.00000    
     13725 BUTH     14       BUTH     LPO22    LPD     -0.303000       0.00000          -1   0.00000       0.00000    
     13726 BUTH     15       BUTH     C1       CD33A     2.05990       11.6110           0  -1.81190       1.18670    
     13727 BUTH     15       BUTH     DC1      DRUD     -2.33590      0.400000           0   0.00000       0.00000    
     13728 BUTH     15       BUTH     C2       CD32A     2.02070       11.6110           0  -1.59660       1.16930    
     13729 BUTH     15       BUTH     DC2      DRUD     -2.19270      0.400000           0   0.00000       0.00000    
     13730 BUTH     15       BUTH     C3       CD32A     1.98270       11.6110           0  -1.59660       1.16930    
     13731 BUTH     15       BUTH     DC3      DRUD     -2.19270      0.400000           0   0.00000       0.00000    
     13732 BUTH     15       BUTH     C4       CD2O3A    2.72690       11.6110           0  -1.26130       1.05430    
     13733 BUTH     15       BUTH     DC4      DRUD     -1.94890      0.400000           0   0.00000       0.00000    
     13734 BUTH     15       BUTH     O1       OD2C1A    1.46540       15.5994           0 -0.713100      0.569800    
     13735 BUTH     15       BUTH     DO1      DRUD     -1.46540      0.400000           0   0.00000       0.00000    
     13736 BUTH     15       BUTH     O2       OD31A     1.58240       15.5990           0 -0.831500      0.749400    
     13737 BUTH     15       BUTH     DO2      DRUD     -1.58240      0.400000           0   0.00000       0.00000    
     13738 BUTH     15       BUTH     H1       HDA3A    0.900000E-01   1.00800           0   0.00000       0.00000    
     13739 BUTH     15       BUTH     H2       HDA3A    0.900000E-01   1.00800           0   0.00000       0.00000    
     13740 BUTH     15       BUTH     H3       HDA3A    0.900000E-01   1.00800           0   0.00000       0.00000    
     13741 BUTH     15       BUTH     H4       HDA2A    0.900000E-01   1.00800           0   0.00000       0.00000    
     13742 BUTH     15       BUTH     H5       HDA2A    0.900000E-01   1.00800           0   0.00000       0.00000    
     13743 BUTH     15       BUTH     H6       HDA2A    0.900000E-01   1.00800           0   0.00000       0.00000    
     13744 BUTH     15       BUTH     H7       HDA2A    0.900000E-01   1.00800           0   0.00000       0.00000    
     13745 BUTH     15       BUTH     H8       HDP1A    0.430000       1.00800           0   0.00000       0.00000    
     13746 BUTH     15       BUTH     H9       DUMH      0.00000       1.00800           0   0.00000       0.00000    
     13747 BUTH     15       BUTH     LPO11    LPDO1   -0.287000       0.00000          -1   0.00000       0.00000    
     13748 BUTH     15       BUTH     LPO12    LPDO1   -0.288000       0.00000          -1   0.00000       0.00000    
     13749 BUTH     15       BUTH     LPO21    LPD     -0.302000       0.00000          -1   0.00000       0.00000    
     13750 BUTH     15       BUTH     LPO22    LPD     -0.303000       0.00000          -1   0.00000       0.00000    
     13751 BUTH     16       BUTH     C1       CD33A     2.05990       11.6110           0  -1.81190       1.18670    
     13752 BUTH     16       BUTH     DC1      DRUD     -2.33590      0.400000           0   0.00000       0.00000    
     13753 BUTH     16       BUTH     C2       CD32A     2.02070       11.6110           0  -1.59660       1.16930    
     13754 BUTH     16       BUTH     DC2      DRUD     -2.19270      0.400000           0   0.00000       0.00000    
     13755 BUTH     16       BUTH     C3       CD32A     1.98270       11.6110           0  -1.59660       1.16930    
     13756 BUTH     16       BUTH     DC3      DRUD     -2.19270      0.400000           0   0.00000       0.00000    
     13757 BUTH     16       BUTH     C4       CD2O3A    2.72690       11.6110           0  -1.26130       1.05430    
     13758 BUTH     16       BUTH     DC4      DRUD     -1.94890      0.400000           0   0.00000       0.00000    
     13759 BUTH     16       BUTH     O1       OD2C1A    1.46540       15.5994           0 -0.713100      0.569800    
     13760 BUTH     16       BUTH     DO1      DRUD     -1.46540      0.400000           0   0.00000       0.00000    
     13761 BUTH     16       BUTH     O2       OD31A     1.58240       15.5990           0 -0.831500      0.749400    
     13762 BUTH     16       BUTH     DO2      DRUD     -1.58240      0.400000           0   0.00000       0.00000    
     13763 BUTH     16       BUTH     H1       HDA3A    0.900000E-01   1.00800           0   0.00000       0.00000    
     13764 BUTH     16       BUTH     H2       HDA3A    0.900000E-01   1.00800           0   0.00000       0.00000    
     13765 BUTH     16       BUTH     H3       HDA3A    0.900000E-01   1.00800           0   0.00000       0.00000    
     13766 BUTH     16       BUTH     H4       HDA2A    0.900000E-01   1.00800           0   0.00000       0.00000    
     13767 BUTH     16       BUTH     H5       HDA2A    0.900000E-01   1.00800           0   0.00000       0.00000    
     13768 BUTH     16       BUTH     H6       HDA2A    0.900000E-01   1.00800           0   0.00000       0.00000    
     13769 BUTH     16       BUTH     H7       HDA2A    0.900000E-01   1.00800           0   0.00000       0.00000    
     13770 BUTH     16       BUTH     H8       HDP1A    0.430000       1.00800           0   0.00000       0.00000    
     13771 BUTH     16       BUTH     H9       DUMH      0.00000       1.00800           0   0.00000       0.00000    
     13772 BUTH     16       BUTH     LPO11    LPDO1   -0.287000       0.00000          -1   0.00000       0.00000    
     13773 BUTH     16       BUTH     LPO12    LPDO1   -0.288000       0.00000          -1   0.00000       0.00000    
     13774 BUTH     16       BUTH     LPO21    LPD     -0.302000       0.00000          -1   0.00000       0.00000    
     13775 BUTH     16       BUTH     LPO22    LPD     -0.303000       0.00000          -1   0.00000       0.00000    
     13776 BUTH     17       BUTH     C1       CD33A     2.05990       11.6110           0  -1.81190       1.18670    
     13777 BUTH     17       BUTH     DC1      DRUD     -2.33590      0.400000           0   0.00000       0.00000    
     13778 BUTH     17       BUTH     C2       CD32A     2.02070       11.6110           0  -1.59660       1.16930    
     13779 BUTH     17       BUTH     DC2      DRUD     -2.19270      0.400000           0   0.00000       0.00000    
     13780 BUTH     17       BUTH     C3       CD32A     1.98270       11.6110           0  -1.59660       1.16930    
     13781 BUTH     17       BUTH     DC3      DRUD     -2.19270      0.400000           0   0.00000       0.00000    
     13782 BUTH     17       BUTH     C4       CD2O3A    2.72690       11.6110           0  -1.26130       1.05430    
     13783 BUTH     17       BUTH     DC4      DRUD     -1.94890      0.400000           0   0.00000       0.00000    
     13784 BUTH     17       BUTH     O1       OD2C1A    1.46540       15.5994           0 -0.713100      0.569800    
     13785 BUTH     17       BUTH     DO1      DRUD     -1.46540      0.400000           0   0.00000       0.00000    
     13786 BUTH     17       BUTH     O2       OD31A     1.58240       15.5990           0 -0.831500      0.749400    
     13787 BUTH     17       BUTH     DO2      DRUD     -1.58240      0.400000           0   0.00000       0.00000    
     13788 BUTH     17       BUTH     H1       HDA3A    0.900000E-01   1.00800           0   0.00000       0.00000    
     13789 BUTH     17       BUTH     H2       HDA3A    0.900000E-01   1.00800           0   0.00000       0.00000    
     13790 BUTH     17       BUTH     H3       HDA3A    0.900000E-01   1.00800           0   0.00000       0.00000    
     13791 BUTH     17       BUTH     H4       HDA2A    0.900000E-01   1.00800           0   0.00000       0.00000    
     13792 BUTH     17       BUTH     H5       HDA2A    0.900000E-01   1.00800           0   0.00000       0.00000    
     13793 BUTH     17       BUTH     H6       HDA2A    0.900000E-01   1.00800           0   0.00000       0.00000    
     13794 BUTH     17       BUTH     H7       HDA2A    0.900000E-01   1.00800           0   0.00000       0.00000    
     13795 BUTH     17       BUTH     H8       HDP1A    0.430000       1.00800           0   0.00000       0.00000    
     13796 BUTH     17       BUTH     H9       DUMH      0.00000       1.00800           0   0.00000       0.00000    
     13797 BUTH     17       BUTH     LPO11    LPDO1   -0.287000       0.00000          -1   0.00000       0.00000    
     13798 BUTH     17       BUTH     LPO12    LPDO1   -0.288000       0.00000          -1   0.00000       0.00000    
     13799 BUTH     17       BUTH     LPO21    LPD     -0.302000       0.00000          -1   0.00000       0.00000    
     13800 BUTH     17       BUTH     LPO22    LPD     -0.303000       0.00000          -1   0.00000       0.00000    
     13801 BUTH     18       BUTH     C1       CD33A     2.05990       11.6110           0  -1.81190       1.18670    
     13802 BUTH     18       BUTH     DC1      DRUD     -2.33590      0.400000           0   0.00000       0.00000    
     13803 BUTH     18       BUTH     C2       CD32A     2.02070       11.6110           0  -1.59660       1.16930    
     13804 BUTH     18       BUTH     DC2      DRUD     -2.19270      0.400000           0   0.00000       0.00000    
     13805 BUTH     18       BUTH     C3       CD32A     1.98270       11.6110           0  -1.59660       1.16930    
     13806 BUTH     18       BUTH     DC3      DRUD     -2.19270      0.400000           0   0.00000       0.00000    
     13807 BUTH     18       BUTH     C4       CD2O3A    2.72690       11.6110           0  -1.26130       1.05430    
     13808 BUTH     18       BUTH     DC4      DRUD     -1.94890      0.400000           0   0.00000       0.00000    
     13809 BUTH     18       BUTH     O1       OD2C1A    1.46540       15.5994           0 -0.713100      0.569800    
     13810 BUTH     18       BUTH     DO1      DRUD     -1.46540      0.400000           0   0.00000       0.00000    
     13811 BUTH     18       BUTH     O2       OD31A     1.58240       15.5990           0 -0.831500      0.749400    
     13812 BUTH     18       BUTH     DO2      DRUD     -1.58240      0.400000           0   0.00000       0.00000    
     13813 BUTH     18       BUTH     H1       HDA3A    0.900000E-01   1.00800           0   0.00000       0.00000    
     13814 BUTH     18       BUTH     H2       HDA3A    0.900000E-01   1.00800           0   0.00000       0.00000    
     13815 BUTH     18       BUTH     H3       HDA3A    0.900000E-01   1.00800           0   0.00000       0.00000    
     13816 BUTH     18       BUTH     H4       HDA2A    0.900000E-01   1.00800           0   0.00000       0.00000    
     13817 BUTH     18       BUTH     H5       HDA2A    0.900000E-01   1.00800           0   0.00000       0.00000    
     13818 BUTH     18       BUTH     H6       HDA2A    0.900000E-01   1.00800           0   0.00000       0.00000    
     13819 BUTH     18       BUTH     H7       HDA2A    0.900000E-01   1.00800           0   0.00000       0.00000    
     13820 BUTH     18       BUTH     H8       HDP1A    0.430000       1.00800           0   0.00000       0.00000    
     13821 BUTH     18       BUTH     H9       DUMH      0.00000       1.00800           0   0.00000       0.00000    
     13822 BUTH     18       BUTH     LPO11    LPDO1   -0.287000       0.00000          -1   0.00000       0.00000    
     13823 BUTH     18       BUTH     LPO12    LPDO1   -0.288000       0.00000          -1   0.00000       0.00000    
     13824 BUTH     18       BUTH     LPO21    LPD     -0.302000       0.00000          -1   0.00000       0.00000    
     13825 BUTH     18       BUTH     LPO22    LPD     -0.303000       0.00000          -1   0.00000       0.00000    
     13826 BUTH     19       BUTH     C1       CD33A     2.05990       11.6110           0  -1.81190       1.18670    
     13827 BUTH     19       BUTH     DC1      DRUD     -2.33590      0.400000           0   0.00000       0.00000    
     13828 BUTH     19       BUTH     C2       CD32A     2.02070       11.6110           0  -1.59660       1.16930    
     13829 BUTH     19       BUTH     DC2      DRUD     -2.19270      0.400000           0   0.00000       0.00000    
     13830 BUTH     19       BUTH     C3       CD32A     1.98270       11.6110           0  -1.59660       1.16930    
     13831 BUTH     19       BUTH     DC3      DRUD     -2.19270      0.400000           0   0.00000       0.00000    
     13832 BUTH     19       BUTH     C4       CD2O3A    2.72690       11.6110           0  -1.26130       1.05430    
     13833 BUTH     19       BUTH     DC4      DRUD     -1.94890      0.400000           0   0.00000       0.00000    
     13834 BUTH     19       BUTH     O1       OD2C1A    1.46540       15.5994           0 -0.713100      0.569800    
     13835 BUTH     19       BUTH     DO1      DRUD     -1.46540      0.400000           0   0.00000       0.00000    
     13836 BUTH     19       BUTH     O2       OD31A     1.58240       15.5990           0 -0.831500      0.749400    
     13837 BUTH     19       BUTH     DO2      DRUD     -1.58240      0.400000           0   0.00000       0.00000    
     13838 BUTH     19       BUTH     H1       HDA3A    0.900000E-01   1.00800           0   0.00000       0.00000    
     13839 BUTH     19       BUTH     H2       HDA3A    0.900000E-01   1.00800           0   0.00000       0.00000    
     13840 BUTH     19       BUTH     H3       HDA3A    0.900000E-01   1.00800           0   0.00000       0.00000    
     13841 BUTH     19       BUTH     H4       HDA2A    0.900000E-01   1.00800           0   0.00000       0.00000    
     13842 BUTH     19       BUTH     H5       HDA2A    0.900000E-01   1.00800           0   0.00000       0.00000    
     13843 BUTH     19       BUTH     H6       HDA2A    0.900000E-01   1.00800           0   0.00000       0.00000    
     13844 BUTH     19       BUTH     H7       HDA2A    0.900000E-01   1.00800           0   0.00000       0.00000    
     13845 BUTH     19       BUTH     H8       HDP1A    0.430000       1.00800           0   0.00000       0.00000    
     13846 BUTH     19       BUTH     H9       DUMH      0.00000       1.00800           0   0.00000       0.00000    
     13847 BUTH     19       BUTH     LPO11    LPDO1   -0.287000       0.00000          -1   0.00000       0.00000    
     13848 BUTH     19       BUTH     LPO12    LPDO1   -0.288000       0.00000          -1   0.00000       0.00000    
     13849 BUTH     19       BUTH     LPO21    LPD     -0.302000       0.00000          -1   0.00000       0.00000    
     13850 BUTH     19       BUTH     LPO22    LPD     -0.303000       0.00000          -1   0.00000       0.00000    
     13851 BUTH     20       BUTH     C1       CD33A     2.05990       11.6110           0  -1.81190       1.18670    
     13852 BUTH     20       BUTH     DC1      DRUD     -2.33590      0.400000           0   0.00000       0.00000    
     13853 BUTH     20       BUTH     C2       CD32A     2.02070       11.6110           0  -1.59660       1.16930    
     13854 BUTH     20       BUTH     DC2      DRUD     -2.19270      0.400000           0   0.00000       0.00000    
     13855 BUTH     20       BUTH     C3       CD32A     1.98270       11.6110           0  -1.59660       1.16930    
     13856 BUTH     20       BUTH     DC3      DRUD     -2.19270      0.400000           0   0.00000       0.00000    
     13857 BUTH     20       BUTH     C4       CD2O3A    2.72690       11.6110           0  -1.26130       1.05430    
     13858 BUTH     20       BUTH     DC4      DRUD     -1.94890      0.400000           0   0.00000       0.00000    
     13859 BUTH     20       BUTH     O1       OD2C1A    1.46540       15.5994           0 -0.713100      0.569800    
     13860 BUTH     20       BUTH     DO1      DRUD     -1.46540      0.400000           0   0.00000       0.00000    
     13861 BUTH     20       BUTH     O2       OD31A     1.58240       15.5990           0 -0.831500      0.749400    
     13862 BUTH     20       BUTH     DO2      DRUD     -1.58240      0.400000           0   0.00000       0.00000    
     13863 BUTH     20       BUTH     H1       HDA3A    0.900000E-01   1.00800           0   0.00000       0.00000    
     13864 BUTH     20       BUTH     H2       HDA3A    0.900000E-01   1.00800           0   0.00000       0.00000    
     13865 BUTH     20       BUTH     H3       HDA3A    0.900000E-01   1.00800           0   0.00000       0.00000    
     13866 BUTH     20       BUTH     H4       HDA2A    0.900000E-01   1.00800           0   0.00000       0.00000    
     13867 BUTH     20       BUTH     H5       HDA2A    0.900000E-01   1.00800           0   0.00000       0.00000    
     13868 BUTH     20       BUTH     H6       HDA2A    0.900000E-01   1.00800           0   0.00000       0.00000    
     13869 BUTH     20       BUTH     H7       HDA2A    0.900000E-01   1.00800           0   0.00000       0.00000    
     13870 BUTH     20       BUTH     H8       HDP1A    0.430000       1.00800           0   0.00000       0.00000    
     13871 BUTH     20       BUTH     H9       DUMH      0.00000       1.00800           0   0.00000       0.00000    
     13872 BUTH     20       BUTH     LPO11    LPDO1   -0.287000       0.00000          -1   0.00000       0.00000    
     13873 BUTH     20       BUTH     LPO12    LPDO1   -0.288000       0.00000          -1   0.00000       0.00000    
     13874 BUTH     20       BUTH     LPO21    LPD     -0.302000       0.00000          -1   0.00000       0.00000    
     13875 BUTH     20       BUTH     LPO22    LPD     -0.303000       0.00000          -1   0.00000       0.00000    
     13876 BUTH     21       BUTH     C1       CD33A     2.05990       11.6110           0  -1.81190       1.18670    
     13877 BUTH     21       BUTH     DC1      DRUD     -2.33590      0.400000           0   0.00000       0.00000    
     13878 BUTH     21       BUTH     C2       CD32A     2.02070       11.6110           0  -1.59660       1.16930    
     13879 BUTH     21       BUTH     DC2      DRUD     -2.19270      0.400000           0   0.00000       0.00000    
     13880 BUTH     21       BUTH     C3       CD32A     1.98270       11.6110           0  -1.59660       1.16930    
     13881 BUTH     21       BUTH     DC3      DRUD     -2.19270      0.400000           0   0.00000       0.00000    
     13882 BUTH     21       BUTH     C4       CD2O3A    2.72690       11.6110           0  -1.26130       1.05430    
     13883 BUTH     21       BUTH     DC4      DRUD     -1.94890      0.400000           0   0.00000       0.00000    
     13884 BUTH     21       BUTH     O1       OD2C1A    1.46540       15.5994           0 -0.713100      0.569800    
     13885 BUTH     21       BUTH     DO1      DRUD     -1.46540      0.400000           0   0.00000       0.00000    
     13886 BUTH     21       BUTH     O2       OD31A     1.58240       15.5990           0 -0.831500      0.749400    
     13887 BUTH     21       BUTH     DO2      DRUD     -1.58240      0.400000           0   0.00000       0.00000    
     13888 BUTH     21       BUTH     H1       HDA3A    0.900000E-01   1.00800           0   0.00000       0.00000    
     13889 BUTH     21       BUTH     H2       HDA3A    0.900000E-01   1.00800           0   0.00000       0.00000    
     13890 BUTH     21       BUTH     H3       HDA3A    0.900000E-01   1.00800           0   0.00000       0.00000    
     13891 BUTH     21       BUTH     H4       HDA2A    0.900000E-01   1.00800           0   0.00000       0.00000    
     13892 BUTH     21       BUTH     H5       HDA2A    0.900000E-01   1.00800           0   0.00000       0.00000    
     13893 BUTH     21       BUTH     H6       HDA2A    0.900000E-01   1.00800           0   0.00000       0.00000    
     13894 BUTH     21       BUTH     H7       HDA2A    0.900000E-01   1.00800           0   0.00000       0.00000    
     13895 BUTH     21       BUTH     H8       HDP1A    0.430000       1.00800           0   0.00000       0.00000    
     13896 BUTH     21       BUTH     H9       DUMH      0.00000       1.00800           0   0.00000       0.00000    
     13897 BUTH     21       BUTH     LPO11    LPDO1   -0.287000       0.00000          -1   0.00000       0.00000    
     13898 BUTH     21       BUTH     LPO12    LPDO1   -0.288000       0.00000          -1   0.00000       0.00000    
     13899 BUTH     21       BUTH     LPO21    LPD     -0.302000       0.00000          -1   0.00000       0.00000    
     13900 BUTH     21       BUTH     LPO22    LPD     -0.303000       0.00000          -1   0.00000       0.00000    
     13901 BUTH     22       BUTH     C1       CD33A     2.05990       11.6110           0  -1.81190       1.18670    
     13902 BUTH     22       BUTH     DC1      DRUD     -2.33590      0.400000           0   0.00000       0.00000    
     13903 BUTH     22       BUTH     C2       CD32A     2.02070       11.6110           0  -1.59660       1.16930    
     13904 BUTH     22       BUTH     DC2      DRUD     -2.19270      0.400000           0   0.00000       0.00000    
     13905 BUTH     22       BUTH     C3       CD32A     1.98270       11.6110           0  -1.59660       1.16930    
     13906 BUTH     22       BUTH     DC3      DRUD     -2.19270      0.400000           0   0.00000       0.00000    
     13907 BUTH     22       BUTH     C4       CD2O3A    2.72690       11.6110           0  -1.26130       1.05430    
     13908 BUTH     22       BUTH     DC4      DRUD     -1.94890      0.400000           0   0.00000       0.00000    
     13909 BUTH     22       BUTH     O1       OD2C1A    1.46540       15.5994           0 -0.713100      0.569800    
     13910 BUTH     22       BUTH     DO1      DRUD     -1.46540      0.400000           0   0.00000       0.00000    
     13911 BUTH     22       BUTH     O2       OD31A     1.58240       15.5990           0 -0.831500      0.749400    
     13912 BUTH     22       BUTH     DO2      DRUD     -1.58240      0.400000           0   0.00000       0.00000    
     13913 BUTH     22       BUTH     H1       HDA3A    0.900000E-01   1.00800           0   0.00000       0.00000    
     13914 BUTH     22       BUTH     H2       HDA3A    0.900000E-01   1.00800           0   0.00000       0.00000    
     13915 BUTH     22       BUTH     H3       HDA3A    0.900000E-01   1.00800           0   0.00000       0.00000    
     13916 BUTH     22       BUTH     H4       HDA2A    0.900000E-01   1.00800           0   0.00000       0.00000    
     13917 BUTH     22       BUTH     H5       HDA2A    0.900000E-01   1.00800           0   0.00000       0.00000    
     13918 BUTH     22       BUTH     H6       HDA2A    0.900000E-01   1.00800           0   0.00000       0.00000    
     13919 BUTH     22       BUTH     H7       HDA2A    0.900000E-01   1.00800           0   0.00000       0.00000    
     13920 BUTH     22       BUTH     H8       HDP1A    0.430000       1.00800           0   0.00000       0.00000    
     13921 BUTH     22       BUTH     H9       DUMH      0.00000       1.00800           0   0.00000       0.00000    
     13922 BUTH     22       BUTH     LPO11    LPDO1   -0.287000       0.00000          -1   0.00000       0.00000    
     13923 BUTH     22       BUTH     LPO12    LPDO1   -0.288000       0.00000          -1   0.00000       0.00000    
     13924 BUTH     22       BUTH     LPO21    LPD     -0.302000       0.00000          -1   0.00000       0.00000    
     13925 BUTH     22       BUTH     LPO22    LPD     -0.303000       0.00000          -1   0.00000       0.00000    
     13926 BUTH     23       BUTH     C1       CD33A     2.05990       11.6110           0  -1.81190       1.18670    
     13927 BUTH     23       BUTH     DC1      DRUD     -2.33590      0.400000           0   0.00000       0.00000    
     13928 BUTH     23       BUTH     C2       CD32A     2.02070       11.6110           0  -1.59660       1.16930    
     13929 BUTH     23       BUTH     DC2      DRUD     -2.19270      0.400000           0   0.00000       0.00000    
     13930 BUTH     23       BUTH     C3       CD32A     1.98270       11.6110           0  -1.59660       1.16930    
     13931 BUTH     23       BUTH     DC3      DRUD     -2.19270      0.400000           0   0.00000       0.00000    
     13932 BUTH     23       BUTH     C4       CD2O3A    2.72690       11.6110           0  -1.26130       1.05430    
     13933 BUTH     23       BUTH     DC4      DRUD     -1.94890      0.400000           0   0.00000       0.00000    
     13934 BUTH     23       BUTH     O1       OD2C1A    1.46540       15.5994           0 -0.713100      0.569800    
     13935 BUTH     23       BUTH     DO1      DRUD     -1.46540      0.400000           0   0.00000       0.00000    
     13936 BUTH     23       BUTH     O2       OD31A     1.58240       15.5990           0 -0.831500      0.749400    
     13937 BUTH     23       BUTH     DO2      DRUD     -1.58240      0.400000           0   0.00000       0.00000    
     13938 BUTH     23       BUTH     H1       HDA3A    0.900000E-01   1.00800           0   0.00000       0.00000    
     13939 BUTH     23       BUTH     H2       HDA3A    0.900000E-01   1.00800           0   0.00000       0.00000    
     13940 BUTH     23       BUTH     H3       HDA3A    0.900000E-01   1.00800           0   0.00000       0.00000    
     13941 BUTH     23       BUTH     H4       HDA2A    0.900000E-01   1.00800           0   0.00000       0.00000    
     13942 BUTH     23       BUTH     H5       HDA2A    0.900000E-01   1.00800           0   0.00000       0.00000    
     13943 BUTH     23       BUTH     H6       HDA2A    0.900000E-01   1.00800           0   0.00000       0.00000    
     13944 BUTH     23       BUTH     H7       HDA2A    0.900000E-01   1.00800           0   0.00000       0.00000    
     13945 BUTH     23       BUTH     H8       HDP1A    0.430000       1.00800           0   0.00000       0.00000    
     13946 BUTH     23       BUTH     H9       DUMH      0.00000       1.00800           0   0.00000       0.00000    
     13947 BUTH     23       BUTH     LPO11    LPDO1   -0.287000       0.00000          -1   0.00000       0.00000    
     13948 BUTH     23       BUTH     LPO12    LPDO1   -0.288000       0.00000          -1   0.00000       0.00000    
     13949 BUTH     23       BUTH     LPO21    LPD     -0.302000       0.00000          -1   0.00000       0.00000    
     13950 BUTH     23       BUTH     LPO22    LPD     -0.303000       0.00000          -1   0.00000       0.00000    
     13951 BUTH     24       BUTH     C1       CD33A     2.05990       11.6110           0  -1.81190       1.18670    
     13952 BUTH     24       BUTH     DC1      DRUD     -2.33590      0.400000           0   0.00000       0.00000    
     13953 BUTH     24       BUTH     C2       CD32A     2.02070       11.6110           0  -1.59660       1.16930    
     13954 BUTH     24       BUTH     DC2      DRUD     -2.19270      0.400000           0   0.00000       0.00000    
     13955 BUTH     24       BUTH     C3       CD32A     1.98270       11.6110           0  -1.59660       1.16930    
     13956 BUTH     24       BUTH     DC3      DRUD     -2.19270      0.400000           0   0.00000       0.00000    
     13957 BUTH     24       BUTH     C4       CD2O3A    2.72690       11.6110           0  -1.26130       1.05430    
     13958 BUTH     24       BUTH     DC4      DRUD     -1.94890      0.400000           0   0.00000       0.00000    
     13959 BUTH     24       BUTH     O1       OD2C1A    1.46540       15.5994           0 -0.713100      0.569800    
     13960 BUTH     24       BUTH     DO1      DRUD     -1.46540      0.400000           0   0.00000       0.00000    
     13961 BUTH     24       BUTH     O2       OD31A     1.58240       15.5990           0 -0.831500      0.749400    
     13962 BUTH     24       BUTH     DO2      DRUD     -1.58240      0.400000           0   0.00000       0.00000    
     13963 BUTH     24       BUTH     H1       HDA3A    0.900000E-01   1.00800           0   0.00000       0.00000    
     13964 BUTH     24       BUTH     H2       HDA3A    0.900000E-01   1.00800           0   0.00000       0.00000    
     13965 BUTH     24       BUTH     H3       HDA3A    0.900000E-01   1.00800           0   0.00000       0.00000    
     13966 BUTH     24       BUTH     H4       HDA2A    0.900000E-01   1.00800           0   0.00000       0.00000    
     13967 BUTH     24       BUTH     H5       HDA2A    0.900000E-01   1.00800           0   0.00000       0.00000    
     13968 BUTH     24       BUTH     H6       HDA2A    0.900000E-01   1.00800           0   0.00000       0.00000    
     13969 BUTH     24       BUTH     H7       HDA2A    0.900000E-01   1.00800           0   0.00000       0.00000    
     13970 BUTH     24       BUTH     H8       HDP1A    0.430000       1.00800           0   0.00000       0.00000    
     13971 BUTH     24       BUTH     H9       DUMH      0.00000       1.00800           0   0.00000       0.00000    
     13972 BUTH     24       BUTH     LPO11    LPDO1   -0.287000       0.00000          -1   0.00000       0.00000    
     13973 BUTH     24       BUTH     LPO12    LPDO1   -0.288000       0.00000          -1   0.00000       0.00000    
     13974 BUTH     24       BUTH     LPO21    LPD     -0.302000       0.00000          -1   0.00000       0.00000    
     13975 BUTH     24       BUTH     LPO22    LPD     -0.303000       0.00000          -1   0.00000       0.00000    
     13976 BUTH     25       BUTH     C1       CD33A     2.05990       11.6110           0  -1.81190       1.18670    
     13977 BUTH     25       BUTH     DC1      DRUD     -2.33590      0.400000           0   0.00000       0.00000    
     13978 BUTH     25       BUTH     C2       CD32A     2.02070       11.6110           0  -1.59660       1.16930    
     13979 BUTH     25       BUTH     DC2      DRUD     -2.19270      0.400000           0   0.00000       0.00000    
     13980 BUTH     25       BUTH     C3       CD32A     1.98270       11.6110           0  -1.59660       1.16930    
     13981 BUTH     25       BUTH     DC3      DRUD     -2.19270      0.400000           0   0.00000       0.00000    
     13982 BUTH     25       BUTH     C4       CD2O3A    2.72690       11.6110           0  -1.26130       1.05430    
     13983 BUTH     25       BUTH     DC4      DRUD     -1.94890      0.400000           0   0.00000       0.00000    
     13984 BUTH     25       BUTH     O1       OD2C1A    1.46540       15.5994           0 -0.713100      0.569800    
     13985 BUTH     25       BUTH     DO1      DRUD     -1.46540      0.400000           0   0.00000       0.00000    
     13986 BUTH     25       BUTH     O2       OD31A     1.58240       15.5990           0 -0.831500      0.749400    
     13987 BUTH     25       BUTH     DO2      DRUD     -1.58240      0.400000           0   0.00000       0.00000    
     13988 BUTH     25       BUTH     H1       HDA3A    0.900000E-01   1.00800           0   0.00000       0.00000    
     13989 BUTH     25       BUTH     H2       HDA3A    0.900000E-01   1.00800           0   0.00000       0.00000    
     13990 BUTH     25       BUTH     H3       HDA3A    0.900000E-01   1.00800           0   0.00000       0.00000    
     13991 BUTH     25       BUTH     H4       HDA2A    0.900000E-01   1.00800           0   0.00000       0.00000    
     13992 BUTH     25       BUTH     H5       HDA2A    0.900000E-01   1.00800           0   0.00000       0.00000    
     13993 BUTH     25       BUTH     H6       HDA2A    0.900000E-01   1.00800           0   0.00000       0.00000    
     13994 BUTH     25       BUTH     H7       HDA2A    0.900000E-01   1.00800           0   0.00000       0.00000    
     13995 BUTH     25       BUTH     H8       HDP1A    0.430000       1.00800           0   0.00000       0.00000    
     13996 BUTH     25       BUTH     H9       DUMH      0.00000       1.00800           0   0.00000       0.00000    
     13997 BUTH     25       BUTH     LPO11    LPDO1   -0.287000       0.00000          -1   0.00000       0.00000    
     13998 BUTH     25       BUTH     LPO12    LPDO1   -0.288000       0.00000          -1   0.00000       0.00000    
     13999 BUTH     25       BUTH     LPO21    LPD     -0.302000       0.00000          -1   0.00000       0.00000    
     14000 BUTH     25       BUTH     LPO22    LPD     -0.303000       0.00000          -1   0.00000       0.00000    
     14001 BUTH     26       BUTH     C1       CD33A     2.05990       11.6110           0  -1.81190       1.18670    
     14002 BUTH     26       BUTH     DC1      DRUD     -2.33590      0.400000           0   0.00000       0.00000    
     14003 BUTH     26       BUTH     C2       CD32A     2.02070       11.6110           0  -1.59660       1.16930    
     14004 BUTH     26       BUTH     DC2      DRUD     -2.19270      0.400000           0   0.00000       0.00000    
     14005 BUTH     26       BUTH     C3       CD32A     1.98270       11.6110           0  -1.59660       1.16930    
     14006 BUTH     26       BUTH     DC3      DRUD     -2.19270      0.400000           0   0.00000       0.00000    
     14007 BUTH     26       BUTH     C4       CD2O3A    2.72690       11.6110           0  -1.26130       1.05430    
     14008 BUTH     26       BUTH     DC4      DRUD     -1.94890      0.400000           0   0.00000       0.00000    
     14009 BUTH     26       BUTH     O1       OD2C1A    1.46540       15.5994           0 -0.713100      0.569800    
     14010 BUTH     26       BUTH     DO1      DRUD     -1.46540      0.400000           0   0.00000       0.00000    
     14011 BUTH     26       BUTH     O2       OD31A     1.58240       15.5990           0 -0.831500      0.749400    
     14012 BUTH     26       BUTH     DO2      DRUD     -1.58240      0.400000           0   0.00000       0.00000    
     14013 BUTH     26       BUTH     H1       HDA3A    0.900000E-01   1.00800           0   0.00000       0.00000    
     14014 BUTH     26       BUTH     H2       HDA3A    0.900000E-01   1.00800           0   0.00000       0.00000    
     14015 BUTH     26       BUTH     H3       HDA3A    0.900000E-01   1.00800           0   0.00000       0.00000    
     14016 BUTH     26       BUTH     H4       HDA2A    0.900000E-01   1.00800           0   0.00000       0.00000    
     14017 BUTH     26       BUTH     H5       HDA2A    0.900000E-01   1.00800           0   0.00000       0.00000    
     14018 BUTH     26       BUTH     H6       HDA2A    0.900000E-01   1.00800           0   0.00000       0.00000    
     14019 BUTH     26       BUTH     H7       HDA2A    0.900000E-01   1.00800           0   0.00000       0.00000    
     14020 BUTH     26       BUTH     H8       HDP1A    0.430000       1.00800           0   0.00000       0.00000    
     14021 BUTH     26       BUTH     H9       DUMH      0.00000       1.00800           0   0.00000       0.00000    
     14022 BUTH     26       BUTH     LPO11    LPDO1   -0.287000       0.00000          -1   0.00000       0.00000    
     14023 BUTH     26       BUTH     LPO12    LPDO1   -0.288000       0.00000          -1   0.00000       0.00000    
     14024 BUTH     26       BUTH     LPO21    LPD     -0.302000       0.00000          -1   0.00000       0.00000    
     14025 BUTH     26       BUTH     LPO22    LPD     -0.303000       0.00000          -1   0.00000       0.00000    
     14026 BUTH     27       BUTH     C1       CD33A     2.05990       11.6110           0  -1.81190       1.18670    
     14027 BUTH     27       BUTH     DC1      DRUD     -2.33590      0.400000           0   0.00000       0.00000    
     14028 BUTH     27       BUTH     C2       CD32A     2.02070       11.6110           0  -1.59660       1.16930    
     14029 BUTH     27       BUTH     DC2      DRUD     -2.19270      0.400000           0   0.00000       0.00000    
     14030 BUTH     27       BUTH     C3       CD32A     1.98270       11.6110           0  -1.59660       1.16930    
     14031 BUTH     27       BUTH     DC3      DRUD     -2.19270      0.400000           0   0.00000       0.00000    
     14032 BUTH     27       BUTH     C4       CD2O3A    2.72690       11.6110           0  -1.26130       1.05430    
     14033 BUTH     27       BUTH     DC4      DRUD     -1.94890      0.400000           0   0.00000       0.00000    
     14034 BUTH     27       BUTH     O1       OD2C1A    1.46540       15.5994           0 -0.713100      0.569800    
     14035 BUTH     27       BUTH     DO1      DRUD     -1.46540      0.400000           0   0.00000       0.00000    
     14036 BUTH     27       BUTH     O2       OD31A     1.58240       15.5990           0 -0.831500      0.749400    
     14037 BUTH     27       BUTH     DO2      DRUD     -1.58240      0.400000           0   0.00000       0.00000    
     14038 BUTH     27       BUTH     H1       HDA3A    0.900000E-01   1.00800           0   0.00000       0.00000    
     14039 BUTH     27       BUTH     H2       HDA3A    0.900000E-01   1.00800           0   0.00000       0.00000    
     14040 BUTH     27       BUTH     H3       HDA3A    0.900000E-01   1.00800           0   0.00000       0.00000    
     14041 BUTH     27       BUTH     H4       HDA2A    0.900000E-01   1.00800           0   0.00000       0.00000    
     14042 BUTH     27       BUTH     H5       HDA2A    0.900000E-01   1.00800           0   0.00000       0.00000    
     14043 BUTH     27       BUTH     H6       HDA2A    0.900000E-01   1.00800           0   0.00000       0.00000    
     14044 BUTH     27       BUTH     H7       HDA2A    0.900000E-01   1.00800           0   0.00000       0.00000    
     14045 BUTH     27       BUTH     H8       HDP1A    0.430000       1.00800           0   0.00000       0.00000    
     14046 BUTH     27       BUTH     H9       DUMH      0.00000       1.00800           0   0.00000       0.00000    
     14047 BUTH     27       BUTH     LPO11    LPDO1   -0.287000       0.00000          -1   0.00000       0.00000    
     14048 BUTH     27       BUTH     LPO12    LPDO1   -0.288000       0.00000          -1   0.00000       0.00000    
     14049 BUTH     27       BUTH     LPO21    LPD     -0.302000       0.00000          -1   0.00000       0.00000    
     14050 BUTH     27       BUTH     LPO22    LPD     -0.303000       0.00000          -1   0.00000       0.00000    
     14051 BUTH     28       BUTH     C1       CD33A     2.05990       11.6110           0  -1.81190       1.18670    
     14052 BUTH     28       BUTH     DC1      DRUD     -2.33590      0.400000           0   0.00000       0.00000    
     14053 BUTH     28       BUTH     C2       CD32A     2.02070       11.6110           0  -1.59660       1.16930    
     14054 BUTH     28       BUTH     DC2      DRUD     -2.19270      0.400000           0   0.00000       0.00000    
     14055 BUTH     28       BUTH     C3       CD32A     1.98270       11.6110           0  -1.59660       1.16930    
     14056 BUTH     28       BUTH     DC3      DRUD     -2.19270      0.400000           0   0.00000       0.00000    
     14057 BUTH     28       BUTH     C4       CD2O3A    2.72690       11.6110           0  -1.26130       1.05430    
     14058 BUTH     28       BUTH     DC4      DRUD     -1.94890      0.400000           0   0.00000       0.00000    
     14059 BUTH     28       BUTH     O1       OD2C1A    1.46540       15.5994           0 -0.713100      0.569800    
     14060 BUTH     28       BUTH     DO1      DRUD     -1.46540      0.400000           0   0.00000       0.00000    
     14061 BUTH     28       BUTH     O2       OD31A     1.58240       15.5990           0 -0.831500      0.749400    
     14062 BUTH     28       BUTH     DO2      DRUD     -1.58240      0.400000           0   0.00000       0.00000    
     14063 BUTH     28       BUTH     H1       HDA3A    0.900000E-01   1.00800           0   0.00000       0.00000    
     14064 BUTH     28       BUTH     H2       HDA3A    0.900000E-01   1.00800           0   0.00000       0.00000    
     14065 BUTH     28       BUTH     H3       HDA3A    0.900000E-01   1.00800           0   0.00000       0.00000    
     14066 BUTH     28       BUTH     H4       HDA2A    0.900000E-01   1.00800           0   0.00000       0.00000    
     14067 BUTH     28       BUTH     H5       HDA2A    0.900000E-01   1.00800           0   0.00000       0.00000    
     14068 BUTH     28       BUTH     H6       HDA2A    0.900000E-01   1.00800           0   0.00000       0.00000    
     14069 BUTH     28       BUTH     H7       HDA2A    0.900000E-01   1.00800           0   0.00000       0.00000    
     14070 BUTH     28       BUTH     H8       HDP1A    0.430000       1.00800           0   0.00000       0.00000    
     14071 BUTH     28       BUTH     H9       DUMH      0.00000       1.00800           0   0.00000       0.00000    
     14072 BUTH     28       BUTH     LPO11    LPDO1   -0.287000       0.00000          -1   0.00000       0.00000    
     14073 BUTH     28       BUTH     LPO12    LPDO1   -0.288000       0.00000          -1   0.00000       0.00000    
     14074 BUTH     28       BUTH     LPO21    LPD     -0.302000       0.00000          -1   0.00000       0.00000    
     14075 BUTH     28       BUTH     LPO22    LPD     -0.303000       0.00000          -1   0.00000       0.00000    
     14076 BUTH     29       BUTH     C1       CD33A     2.05990       11.6110           0  -1.81190       1.18670    
     14077 BUTH     29       BUTH     DC1      DRUD     -2.33590      0.400000           0   0.00000       0.00000    
     14078 BUTH     29       BUTH     C2       CD32A     2.02070       11.6110           0  -1.59660       1.16930    
     14079 BUTH     29       BUTH     DC2      DRUD     -2.19270      0.400000           0   0.00000       0.00000    
     14080 BUTH     29       BUTH     C3       CD32A     1.98270       11.6110           0  -1.59660       1.16930    
     14081 BUTH     29       BUTH     DC3      DRUD     -2.19270      0.400000           0   0.00000       0.00000    
     14082 BUTH     29       BUTH     C4       CD2O3A    2.72690       11.6110           0  -1.26130       1.05430    
     14083 BUTH     29       BUTH     DC4      DRUD     -1.94890      0.400000           0   0.00000       0.00000    
     14084 BUTH     29       BUTH     O1       OD2C1A    1.46540       15.5994           0 -0.713100      0.569800    
     14085 BUTH     29       BUTH     DO1      DRUD     -1.46540      0.400000           0   0.00000       0.00000    
     14086 BUTH     29       BUTH     O2       OD31A     1.58240       15.5990           0 -0.831500      0.749400    
     14087 BUTH     29       BUTH     DO2      DRUD     -1.58240      0.400000           0   0.00000       0.00000    
     14088 BUTH     29       BUTH     H1       HDA3A    0.900000E-01   1.00800           0   0.00000       0.00000    
     14089 BUTH     29       BUTH     H2       HDA3A    0.900000E-01   1.00800           0   0.00000       0.00000    
     14090 BUTH     29       BUTH     H3       HDA3A    0.900000E-01   1.00800           0   0.00000       0.00000    
     14091 BUTH     29       BUTH     H4       HDA2A    0.900000E-01   1.00800           0   0.00000       0.00000    
     14092 BUTH     29       BUTH     H5       HDA2A    0.900000E-01   1.00800           0   0.00000       0.00000    
     14093 BUTH     29       BUTH     H6       HDA2A    0.900000E-01   1.00800           0   0.00000       0.00000    
     14094 BUTH     29       BUTH     H7       HDA2A    0.900000E-01   1.00800           0   0.00000       0.00000    
     14095 BUTH     29       BUTH     H8       HDP1A    0.430000       1.00800           0   0.00000       0.00000    
     14096 BUTH     29       BUTH     H9       DUMH      0.00000       1.00800           0   0.00000       0.00000    
     14097 BUTH     29       BUTH     LPO11    LPDO1   -0.287000       0.00000          -1   0.00000       0.00000    
     14098 BUTH     29       BUTH     LPO12    LPDO1   -0.288000       0.00000          -1   0.00000       0.00000    
     14099 BUTH     29       BUTH     LPO21    LPD     -0.302000       0.00000          -1   0.00000       0.00000    
     14100 BUTH     29       BUTH     LPO22    LPD     -0.303000       0.00000          -1   0.00000       0.00000    
     14101 BUTH     30       BUTH     C1       CD33A     2.05990       11.6110           0  -1.81190       1.18670    
     14102 BUTH     30       BUTH     DC1      DRUD     -2.33590      0.400000           0   0.00000       0.00000    
     14103 BUTH     30       BUTH     C2       CD32A     2.02070       11.6110           0  -1.59660       1.16930    
     14104 BUTH     30       BUTH     DC2      DRUD     -2.19270      0.400000           0   0.00000       0.00000    
     14105 BUTH     30       BUTH     C3       CD32A     1.98270       11.6110           0  -1.59660       1.16930    
     14106 BUTH     30       BUTH     DC3      DRUD     -2.19270      0.400000           0   0.00000       0.00000    
     14107 BUTH     30       BUTH     C4       CD2O3A    2.72690       11.6110           0  -1.26130       1.05430    
     14108 BUTH     30       BUTH     DC4      DRUD     -1.94890      0.400000           0   0.00000       0.00000    
     14109 BUTH     30       BUTH     O1       OD2C1A    1.46540       15.5994           0 -0.713100      0.569800    
     14110 BUTH     30       BUTH     DO1      DRUD     -1.46540      0.400000           0   0.00000       0.00000    
     14111 BUTH     30       BUTH     O2       OD31A     1.58240       15.5990           0 -0.831500      0.749400    
     14112 BUTH     30       BUTH     DO2      DRUD     -1.58240      0.400000           0   0.00000       0.00000    
     14113 BUTH     30       BUTH     H1       HDA3A    0.900000E-01   1.00800           0   0.00000       0.00000    
     14114 BUTH     30       BUTH     H2       HDA3A    0.900000E-01   1.00800           0   0.00000       0.00000    
     14115 BUTH     30       BUTH     H3       HDA3A    0.900000E-01   1.00800           0   0.00000       0.00000    
     14116 BUTH     30       BUTH     H4       HDA2A    0.900000E-01   1.00800           0   0.00000       0.00000    
     14117 BUTH     30       BUTH     H5       HDA2A    0.900000E-01   1.00800           0   0.00000       0.00000    
     14118 BUTH     30       BUTH     H6       HDA2A    0.900000E-01   1.00800           0   0.00000       0.00000    
     14119 BUTH     30       BUTH     H7       HDA2A    0.900000E-01   1.00800           0   0.00000       0.00000    
     14120 BUTH     30       BUTH     H8       HDP1A    0.430000       1.00800           0   0.00000       0.00000    
     14121 BUTH     30       BUTH     H9       DUMH      0.00000       1.00800           0   0.00000       0.00000    
     14122 BUTH     30       BUTH     LPO11    LPDO1   -0.287000       0.00000          -1   0.00000       0.00000    
     14123 BUTH     30       BUTH     LPO12    LPDO1   -0.288000       0.00000          -1   0.00000       0.00000    
     14124 BUTH     30       BUTH     LPO21    LPD     -0.302000       0.00000          -1   0.00000       0.00000    
     14125 BUTH     30       BUTH     LPO22    LPD     -0.303000       0.00000          -1   0.00000       0.00000    
     14126 BUTH     31       BUTH     C1       CD33A     2.05990       11.6110           0  -1.81190       1.18670    
     14127 BUTH     31       BUTH     DC1      DRUD     -2.33590      0.400000           0   0.00000       0.00000    
     14128 BUTH     31       BUTH     C2       CD32A     2.02070       11.6110           0  -1.59660       1.16930    
     14129 BUTH     31       BUTH     DC2      DRUD     -2.19270      0.400000           0   0.00000       0.00000    
     14130 BUTH     31       BUTH     C3       CD32A     1.98270       11.6110           0  -1.59660       1.16930    
     14131 BUTH     31       BUTH     DC3      DRUD     -2.19270      0.400000           0   0.00000       0.00000    
     14132 BUTH     31       BUTH     C4       CD2O3A    2.72690       11.6110           0  -1.26130       1.05430    
     14133 BUTH     31       BUTH     DC4      DRUD     -1.94890      0.400000           0   0.00000       0.00000    
     14134 BUTH     31       BUTH     O1       OD2C1A    1.46540       15.5994           0 -0.713100      0.569800    
     14135 BUTH     31       BUTH     DO1      DRUD     -1.46540      0.400000           0   0.00000       0.00000    
     14136 BUTH     31       BUTH     O2       OD31A     1.58240       15.5990           0 -0.831500      0.749400    
     14137 BUTH     31       BUTH     DO2      DRUD     -1.58240      0.400000           0   0.00000       0.00000    
     14138 BUTH     31       BUTH     H1       HDA3A    0.900000E-01   1.00800           0   0.00000       0.00000    
     14139 BUTH     31       BUTH     H2       HDA3A    0.900000E-01   1.00800           0   0.00000       0.00000    
     14140 BUTH     31       BUTH     H3       HDA3A    0.900000E-01   1.00800           0   0.00000       0.00000    
     14141 BUTH     31       BUTH     H4       HDA2A    0.900000E-01   1.00800           0   0.00000       0.00000    
     14142 BUTH     31       BUTH     H5       HDA2A    0.900000E-01   1.00800           0   0.00000       0.00000    
     14143 BUTH     31       BUTH     H6       HDA2A    0.900000E-01   1.00800           0   0.00000       0.00000    
     14144 BUTH     31       BUTH     H7       HDA2A    0.900000E-01   1.00800           0   0.00000       0.00000    
     14145 BUTH     31       BUTH     H8       HDP1A    0.430000       1.00800           0   0.00000       0.00000    
     14146 BUTH     31       BUTH     H9       DUMH      0.00000       1.00800           0   0.00000       0.00000    
     14147 BUTH     31       BUTH     LPO11    LPDO1   -0.287000       0.00000          -1   0.00000       0.00000    
     14148 BUTH     31       BUTH     LPO12    LPDO1   -0.288000       0.00000          -1   0.00000       0.00000    
     14149 BUTH     31       BUTH     LPO21    LPD     -0.302000       0.00000          -1   0.00000       0.00000    
     14150 BUTH     31       BUTH     LPO22    LPD     -0.303000       0.00000          -1   0.00000       0.00000    
     14151 BUTH     32       BUTH     C1       CD33A     2.05990       11.6110           0  -1.81190       1.18670    
     14152 BUTH     32       BUTH     DC1      DRUD     -2.33590      0.400000           0   0.00000       0.00000    
     14153 BUTH     32       BUTH     C2       CD32A     2.02070       11.6110           0  -1.59660       1.16930    
     14154 BUTH     32       BUTH     DC2      DRUD     -2.19270      0.400000           0   0.00000       0.00000    
     14155 BUTH     32       BUTH     C3       CD32A     1.98270       11.6110           0  -1.59660       1.16930    
     14156 BUTH     32       BUTH     DC3      DRUD     -2.19270      0.400000           0   0.00000       0.00000    
     14157 BUTH     32       BUTH     C4       CD2O3A    2.72690       11.6110           0  -1.26130       1.05430    
     14158 BUTH     32       BUTH     DC4      DRUD     -1.94890      0.400000           0   0.00000       0.00000    
     14159 BUTH     32       BUTH     O1       OD2C1A    1.46540       15.5994           0 -0.713100      0.569800    
     14160 BUTH     32       BUTH     DO1      DRUD     -1.46540      0.400000           0   0.00000       0.00000    
     14161 BUTH     32       BUTH     O2       OD31A     1.58240       15.5990           0 -0.831500      0.749400    
     14162 BUTH     32       BUTH     DO2      DRUD     -1.58240      0.400000           0   0.00000       0.00000    
     14163 BUTH     32       BUTH     H1       HDA3A    0.900000E-01   1.00800           0   0.00000       0.00000    
     14164 BUTH     32       BUTH     H2       HDA3A    0.900000E-01   1.00800           0   0.00000       0.00000    
     14165 BUTH     32       BUTH     H3       HDA3A    0.900000E-01   1.00800           0   0.00000       0.00000    
     14166 BUTH     32       BUTH     H4       HDA2A    0.900000E-01   1.00800           0   0.00000       0.00000    
     14167 BUTH     32       BUTH     H5       HDA2A    0.900000E-01   1.00800           0   0.00000       0.00000    
     14168 BUTH     32       BUTH     H6       HDA2A    0.900000E-01   1.00800           0   0.00000       0.00000    
     14169 BUTH     32       BUTH     H7       HDA2A    0.900000E-01   1.00800           0   0.00000       0.00000    
     14170 BUTH     32       BUTH     H8       HDP1A    0.430000       1.00800           0   0.00000       0.00000    
     14171 BUTH     32       BUTH     H9       DUMH      0.00000       1.00800           0   0.00000       0.00000    
     14172 BUTH     32       BUTH     LPO11    LPDO1   -0.287000       0.00000          -1   0.00000       0.00000    
     14173 BUTH     32       BUTH     LPO12    LPDO1   -0.288000       0.00000          -1   0.00000       0.00000    
     14174 BUTH     32       BUTH     LPO21    LPD     -0.302000       0.00000          -1   0.00000       0.00000    
     14175 BUTH     32       BUTH     LPO22    LPD     -0.303000       0.00000          -1   0.00000       0.00000    
     14176 BUTH     33       BUTH     C1       CD33A     2.05990       11.6110           0  -1.81190       1.18670    
     14177 BUTH     33       BUTH     DC1      DRUD     -2.33590      0.400000           0   0.00000       0.00000    
     14178 BUTH     33       BUTH     C2       CD32A     2.02070       11.6110           0  -1.59660       1.16930    
     14179 BUTH     33       BUTH     DC2      DRUD     -2.19270      0.400000           0   0.00000       0.00000    
     14180 BUTH     33       BUTH     C3       CD32A     1.98270       11.6110           0  -1.59660       1.16930    
     14181 BUTH     33       BUTH     DC3      DRUD     -2.19270      0.400000           0   0.00000       0.00000    
     14182 BUTH     33       BUTH     C4       CD2O3A    2.72690       11.6110           0  -1.26130       1.05430    
     14183 BUTH     33       BUTH     DC4      DRUD     -1.94890      0.400000           0   0.00000       0.00000    
     14184 BUTH     33       BUTH     O1       OD2C1A    1.46540       15.5994           0 -0.713100      0.569800    
     14185 BUTH     33       BUTH     DO1      DRUD     -1.46540      0.400000           0   0.00000       0.00000    
     14186 BUTH     33       BUTH     O2       OD31A     1.58240       15.5990           0 -0.831500      0.749400    
     14187 BUTH     33       BUTH     DO2      DRUD     -1.58240      0.400000           0   0.00000       0.00000    
     14188 BUTH     33       BUTH     H1       HDA3A    0.900000E-01   1.00800           0   0.00000       0.00000    
     14189 BUTH     33       BUTH     H2       HDA3A    0.900000E-01   1.00800           0   0.00000       0.00000    
     14190 BUTH     33       BUTH     H3       HDA3A    0.900000E-01   1.00800           0   0.00000       0.00000    
     14191 BUTH     33       BUTH     H4       HDA2A    0.900000E-01   1.00800           0   0.00000       0.00000    
     14192 BUTH     33       BUTH     H5       HDA2A    0.900000E-01   1.00800           0   0.00000       0.00000    
     14193 BUTH     33       BUTH     H6       HDA2A    0.900000E-01   1.00800           0   0.00000       0.00000    
     14194 BUTH     33       BUTH     H7       HDA2A    0.900000E-01   1.00800           0   0.00000       0.00000    
     14195 BUTH     33       BUTH     H8       HDP1A    0.430000       1.00800           0   0.00000       0.00000    
     14196 BUTH     33       BUTH     H9       DUMH      0.00000       1.00800           0   0.00000       0.00000    
     14197 BUTH     33       BUTH     LPO11    LPDO1   -0.287000       0.00000          -1   0.00000       0.00000    
     14198 BUTH     33       BUTH     LPO12    LPDO1   -0.288000       0.00000          -1   0.00000       0.00000    
     14199 BUTH     33       BUTH     LPO21    LPD     -0.302000       0.00000          -1   0.00000       0.00000    
     14200 BUTH     33       BUTH     LPO22    LPD     -0.303000       0.00000          -1   0.00000       0.00000    
     14201 BUTH     34       BUTH     C1       CD33A     2.05990       11.6110           0  -1.81190       1.18670    
     14202 BUTH     34       BUTH     DC1      DRUD     -2.33590      0.400000           0   0.00000       0.00000    
     14203 BUTH     34       BUTH     C2       CD32A     2.02070       11.6110           0  -1.59660       1.16930    
     14204 BUTH     34       BUTH     DC2      DRUD     -2.19270      0.400000           0   0.00000       0.00000    
     14205 BUTH     34       BUTH     C3       CD32A     1.98270       11.6110           0  -1.59660       1.16930    
     14206 BUTH     34       BUTH     DC3      DRUD     -2.19270      0.400000           0   0.00000       0.00000    
     14207 BUTH     34       BUTH     C4       CD2O3A    2.72690       11.6110           0  -1.26130       1.05430    
     14208 BUTH     34       BUTH     DC4      DRUD     -1.94890      0.400000           0   0.00000       0.00000    
     14209 BUTH     34       BUTH     O1       OD2C1A    1.46540       15.5994           0 -0.713100      0.569800    
     14210 BUTH     34       BUTH     DO1      DRUD     -1.46540      0.400000           0   0.00000       0.00000    
     14211 BUTH     34       BUTH     O2       OD31A     1.58240       15.5990           0 -0.831500      0.749400    
     14212 BUTH     34       BUTH     DO2      DRUD     -1.58240      0.400000           0   0.00000       0.00000    
     14213 BUTH     34       BUTH     H1       HDA3A    0.900000E-01   1.00800           0   0.00000       0.00000    
     14214 BUTH     34       BUTH     H2       HDA3A    0.900000E-01   1.00800           0   0.00000       0.00000    
     14215 BUTH     34       BUTH     H3       HDA3A    0.900000E-01   1.00800           0   0.00000       0.00000    
     14216 BUTH     34       BUTH     H4       HDA2A    0.900000E-01   1.00800           0   0.00000       0.00000    
     14217 BUTH     34       BUTH     H5       HDA2A    0.900000E-01   1.00800           0   0.00000       0.00000    
     14218 BUTH     34       BUTH     H6       HDA2A    0.900000E-01   1.00800           0   0.00000       0.00000    
     14219 BUTH     34       BUTH     H7       HDA2A    0.900000E-01   1.00800           0   0.00000       0.00000    
     14220 BUTH     34       BUTH     H8       HDP1A    0.430000       1.00800           0   0.00000       0.00000    
     14221 BUTH     34       BUTH     H9       DUMH      0.00000       1.00800           0   0.00000       0.00000    
     14222 BUTH     34       BUTH     LPO11    LPDO1   -0.287000       0.00000          -1   0.00000       0.00000    
     14223 BUTH     34       BUTH     LPO12    LPDO1   -0.288000       0.00000          -1   0.00000       0.00000    
     14224 BUTH     34       BUTH     LPO21    LPD     -0.302000       0.00000          -1   0.00000       0.00000    
     14225 BUTH     34       BUTH     LPO22    LPD     -0.303000       0.00000          -1   0.00000       0.00000    
     14226 BUTH     35       BUTH     C1       CD33A     2.05990       11.6110           0  -1.81190       1.18670    
     14227 BUTH     35       BUTH     DC1      DRUD     -2.33590      0.400000           0   0.00000       0.00000    
     14228 BUTH     35       BUTH     C2       CD32A     2.02070       11.6110           0  -1.59660       1.16930    
     14229 BUTH     35       BUTH     DC2      DRUD     -2.19270      0.400000           0   0.00000       0.00000    
     14230 BUTH     35       BUTH     C3       CD32A     1.98270       11.6110           0  -1.59660       1.16930    
     14231 BUTH     35       BUTH     DC3      DRUD     -2.19270      0.400000           0   0.00000       0.00000    
     14232 BUTH     35       BUTH     C4       CD2O3A    2.72690       11.6110           0  -1.26130       1.05430    
     14233 BUTH     35       BUTH     DC4      DRUD     -1.94890      0.400000           0   0.00000       0.00000    
     14234 BUTH     35       BUTH     O1       OD2C1A    1.46540       15.5994           0 -0.713100      0.569800    
     14235 BUTH     35       BUTH     DO1      DRUD     -1.46540      0.400000           0   0.00000       0.00000    
     14236 BUTH     35       BUTH     O2       OD31A     1.58240       15.5990           0 -0.831500      0.749400    
     14237 BUTH     35       BUTH     DO2      DRUD     -1.58240      0.400000           0   0.00000       0.00000    
     14238 BUTH     35       BUTH     H1       HDA3A    0.900000E-01   1.00800           0   0.00000       0.00000    
     14239 BUTH     35       BUTH     H2       HDA3A    0.900000E-01   1.00800           0   0.00000       0.00000    
     14240 BUTH     35       BUTH     H3       HDA3A    0.900000E-01   1.00800           0   0.00000       0.00000    
     14241 BUTH     35       BUTH     H4       HDA2A    0.900000E-01   1.00800           0   0.00000       0.00000    
     14242 BUTH     35       BUTH     H5       HDA2A    0.900000E-01   1.00800           0   0.00000       0.00000    
     14243 BUTH     35       BUTH     H6       HDA2A    0.900000E-01   1.00800           0   0.00000       0.00000    
     14244 BUTH     35       BUTH     H7       HDA2A    0.900000E-01   1.00800           0   0.00000       0.00000    
     14245 BUTH     35       BUTH     H8       HDP1A    0.430000       1.00800           0   0.00000       0.00000    
     14246 BUTH     35       BUTH     H9       DUMH      0.00000       1.00800           0   0.00000       0.00000    
     14247 BUTH     35       BUTH     LPO11    LPDO1   -0.287000       0.00000          -1   0.00000       0.00000    
     14248 BUTH     35       BUTH     LPO12    LPDO1   -0.288000       0.00000          -1   0.00000       0.00000    
     14249 BUTH     35       BUTH     LPO21    LPD     -0.302000       0.00000          -1   0.00000       0.00000    
     14250 BUTH     35       BUTH     LPO22    LPD     -0.303000       0.00000          -1   0.00000       0.00000    
     14251 BUTH     36       BUTH     C1       CD33A     2.05990       11.6110           0  -1.81190       1.18670    
     14252 BUTH     36       BUTH     DC1      DRUD     -2.33590      0.400000           0   0.00000       0.00000    
     14253 BUTH     36       BUTH     C2       CD32A     2.02070       11.6110           0  -1.59660       1.16930    
     14254 BUTH     36       BUTH     DC2      DRUD     -2.19270      0.400000           0   0.00000       0.00000    
     14255 BUTH     36       BUTH     C3       CD32A     1.98270       11.6110           0  -1.59660       1.16930    
     14256 BUTH     36       BUTH     DC3      DRUD     -2.19270      0.400000           0   0.00000       0.00000    
     14257 BUTH     36       BUTH     C4       CD2O3A    2.72690       11.6110           0  -1.26130       1.05430    
     14258 BUTH     36       BUTH     DC4      DRUD     -1.94890      0.400000           0   0.00000       0.00000    
     14259 BUTH     36       BUTH     O1       OD2C1A    1.46540       15.5994           0 -0.713100      0.569800    
     14260 BUTH     36       BUTH     DO1      DRUD     -1.46540      0.400000           0   0.00000       0.00000    
     14261 BUTH     36       BUTH     O2       OD31A     1.58240       15.5990           0 -0.831500      0.749400    
     14262 BUTH     36       BUTH     DO2      DRUD     -1.58240      0.400000           0   0.00000       0.00000    
     14263 BUTH     36       BUTH     H1       HDA3A    0.900000E-01   1.00800           0   0.00000       0.00000    
     14264 BUTH     36       BUTH     H2       HDA3A    0.900000E-01   1.00800           0   0.00000       0.00000    
     14265 BUTH     36       BUTH     H3       HDA3A    0.900000E-01   1.00800           0   0.00000       0.00000    
     14266 BUTH     36       BUTH     H4       HDA2A    0.900000E-01   1.00800           0   0.00000       0.00000    
     14267 BUTH     36       BUTH     H5       HDA2A    0.900000E-01   1.00800           0   0.00000       0.00000    
     14268 BUTH     36       BUTH     H6       HDA2A    0.900000E-01   1.00800           0   0.00000       0.00000    
     14269 BUTH     36       BUTH     H7       HDA2A    0.900000E-01   1.00800           0   0.00000       0.00000    
     14270 BUTH     36       BUTH     H8       HDP1A    0.430000       1.00800           0   0.00000       0.00000    
     14271 BUTH     36       BUTH     H9       DUMH      0.00000       1.00800           0   0.00000       0.00000    
     14272 BUTH     36       BUTH     LPO11    LPDO1   -0.287000       0.00000          -1   0.00000       0.00000    
     14273 BUTH     36       BUTH     LPO12    LPDO1   -0.288000       0.00000          -1   0.00000       0.00000    
     14274 BUTH     36       BUTH     LPO21    LPD     -0.302000       0.00000          -1   0.00000       0.00000    
     14275 BUTH     36       BUTH     LPO22    LPD     -0.303000       0.00000          -1   0.00000       0.00000    
     14276 BUTH     37       BUTH     C1       CD33A     2.05990       11.6110           0  -1.81190       1.18670    
     14277 BUTH     37       BUTH     DC1      DRUD     -2.33590      0.400000           0   0.00000       0.00000    
     14278 BUTH     37       BUTH     C2       CD32A     2.02070       11.6110           0  -1.59660       1.16930    
     14279 BUTH     37       BUTH     DC2      DRUD     -2.19270      0.400000           0   0.00000       0.00000    
     14280 BUTH     37       BUTH     C3       CD32A     1.98270       11.6110           0  -1.59660       1.16930    
     14281 BUTH     37       BUTH     DC3      DRUD     -2.19270      0.400000           0   0.00000       0.00000    
     14282 BUTH     37       BUTH     C4       CD2O3A    2.72690       11.6110           0  -1.26130       1.05430    
     14283 BUTH     37       BUTH     DC4      DRUD     -1.94890      0.400000           0   0.00000       0.00000    
     14284 BUTH     37       BUTH     O1       OD2C1A    1.46540       15.5994           0 -0.713100      0.569800    
     14285 BUTH     37       BUTH     DO1      DRUD     -1.46540      0.400000           0   0.00000       0.00000    
     14286 BUTH     37       BUTH     O2       OD31A     1.58240       15.5990           0 -0.831500      0.749400    
     14287 BUTH     37       BUTH     DO2      DRUD     -1.58240      0.400000           0   0.00000       0.00000    
     14288 BUTH     37       BUTH     H1       HDA3A    0.900000E-01   1.00800           0   0.00000       0.00000    
     14289 BUTH     37       BUTH     H2       HDA3A    0.900000E-01   1.00800           0   0.00000       0.00000    
     14290 BUTH     37       BUTH     H3       HDA3A    0.900000E-01   1.00800           0   0.00000       0.00000    
     14291 BUTH     37       BUTH     H4       HDA2A    0.900000E-01   1.00800           0   0.00000       0.00000    
     14292 BUTH     37       BUTH     H5       HDA2A    0.900000E-01   1.00800           0   0.00000       0.00000    
     14293 BUTH     37       BUTH     H6       HDA2A    0.900000E-01   1.00800           0   0.00000       0.00000    
     14294 BUTH     37       BUTH     H7       HDA2A    0.900000E-01   1.00800           0   0.00000       0.00000    
     14295 BUTH     37       BUTH     H8       HDP1A    0.430000       1.00800           0   0.00000       0.00000    
     14296 BUTH     37       BUTH     H9       DUMH      0.00000       1.00800           0   0.00000       0.00000    
     14297 BUTH     37       BUTH     LPO11    LPDO1   -0.287000       0.00000          -1   0.00000       0.00000    
     14298 BUTH     37       BUTH     LPO12    LPDO1   -0.288000       0.00000          -1   0.00000       0.00000    
     14299 BUTH     37       BUTH     LPO21    LPD     -0.302000       0.00000          -1   0.00000       0.00000    
     14300 BUTH     37       BUTH     LPO22    LPD     -0.303000       0.00000          -1   0.00000       0.00000    
     14301 BUTH     38       BUTH     C1       CD33A     2.05990       11.6110           0  -1.81190       1.18670    
     14302 BUTH     38       BUTH     DC1      DRUD     -2.33590      0.400000           0   0.00000       0.00000    
     14303 BUTH     38       BUTH     C2       CD32A     2.02070       11.6110           0  -1.59660       1.16930    
     14304 BUTH     38       BUTH     DC2      DRUD     -2.19270      0.400000           0   0.00000       0.00000    
     14305 BUTH     38       BUTH     C3       CD32A     1.98270       11.6110           0  -1.59660       1.16930    
     14306 BUTH     38       BUTH     DC3      DRUD     -2.19270      0.400000           0   0.00000       0.00000    
     14307 BUTH     38       BUTH     C4       CD2O3A    2.72690       11.6110           0  -1.26130       1.05430    
     14308 BUTH     38       BUTH     DC4      DRUD     -1.94890      0.400000           0   0.00000       0.00000    
     14309 BUTH     38       BUTH     O1       OD2C1A    1.46540       15.5994           0 -0.713100      0.569800    
     14310 BUTH     38       BUTH     DO1      DRUD     -1.46540      0.400000           0   0.00000       0.00000    
     14311 BUTH     38       BUTH     O2       OD31A     1.58240       15.5990           0 -0.831500      0.749400    
     14312 BUTH     38       BUTH     DO2      DRUD     -1.58240      0.400000           0   0.00000       0.00000    
     14313 BUTH     38       BUTH     H1       HDA3A    0.900000E-01   1.00800           0   0.00000       0.00000    
     14314 BUTH     38       BUTH     H2       HDA3A    0.900000E-01   1.00800           0   0.00000       0.00000    
     14315 BUTH     38       BUTH     H3       HDA3A    0.900000E-01   1.00800           0   0.00000       0.00000    
     14316 BUTH     38       BUTH     H4       HDA2A    0.900000E-01   1.00800           0   0.00000       0.00000    
     14317 BUTH     38       BUTH     H5       HDA2A    0.900000E-01   1.00800           0   0.00000       0.00000    
     14318 BUTH     38       BUTH     H6       HDA2A    0.900000E-01   1.00800           0   0.00000       0.00000    
     14319 BUTH     38       BUTH     H7       HDA2A    0.900000E-01   1.00800           0   0.00000       0.00000    
     14320 BUTH     38       BUTH     H8       HDP1A    0.430000       1.00800           0   0.00000       0.00000    
     14321 BUTH     38       BUTH     H9       DUMH      0.00000       1.00800           0   0.00000       0.00000    
     14322 BUTH     38       BUTH     LPO11    LPDO1   -0.287000       0.00000          -1   0.00000       0.00000    
     14323 BUTH     38       BUTH     LPO12    LPDO1   -0.288000       0.00000          -1   0.00000       0.00000    
     14324 BUTH     38       BUTH     LPO21    LPD     -0.302000       0.00000          -1   0.00000       0.00000    
     14325 BUTH     38       BUTH     LPO22    LPD     -0.303000       0.00000          -1   0.00000       0.00000    
     14326 BUTH     39       BUTH     C1       CD33A     2.05990       11.6110           0  -1.81190       1.18670    
     14327 BUTH     39       BUTH     DC1      DRUD     -2.33590      0.400000           0   0.00000       0.00000    
     14328 BUTH     39       BUTH     C2       CD32A     2.02070       11.6110           0  -1.59660       1.16930    
     14329 BUTH     39       BUTH     DC2      DRUD     -2.19270      0.400000           0   0.00000       0.00000    
     14330 BUTH     39       BUTH     C3       CD32A     1.98270       11.6110           0  -1.59660       1.16930    
     14331 BUTH     39       BUTH     DC3      DRUD     -2.19270      0.400000           0   0.00000       0.00000    
     14332 BUTH     39       BUTH     C4       CD2O3A    2.72690       11.6110           0  -1.26130       1.05430    
     14333 BUTH     39       BUTH     DC4      DRUD     -1.94890      0.400000           0   0.00000       0.00000    
     14334 BUTH     39       BUTH     O1       OD2C1A    1.46540       15.5994           0 -0.713100      0.569800    
     14335 BUTH     39       BUTH     DO1      DRUD     -1.46540      0.400000           0   0.00000       0.00000    
     14336 BUTH     39       BUTH     O2       OD31A     1.58240       15.5990           0 -0.831500      0.749400    
     14337 BUTH     39       BUTH     DO2      DRUD     -1.58240      0.400000           0   0.00000       0.00000    
     14338 BUTH     39       BUTH     H1       HDA3A    0.900000E-01   1.00800           0   0.00000       0.00000    
     14339 BUTH     39       BUTH     H2       HDA3A    0.900000E-01   1.00800           0   0.00000       0.00000    
     14340 BUTH     39       BUTH     H3       HDA3A    0.900000E-01   1.00800           0   0.00000       0.00000    
     14341 BUTH     39       BUTH     H4       HDA2A    0.900000E-01   1.00800           0   0.00000       0.00000    
     14342 BUTH     39       BUTH     H5       HDA2A    0.900000E-01   1.00800           0   0.00000       0.00000    
     14343 BUTH     39       BUTH     H6       HDA2A    0.900000E-01   1.00800           0   0.00000       0.00000    
     14344 BUTH     39       BUTH     H7       HDA2A    0.900000E-01   1.00800           0   0.00000       0.00000    
     14345 BUTH     39       BUTH     H8       HDP1A    0.430000       1.00800           0   0.00000       0.00000    
     14346 BUTH     39       BUTH     H9       DUMH      0.00000       1.00800           0   0.00000       0.00000    
     14347 BUTH     39       BUTH     LPO11    LPDO1   -0.287000       0.00000          -1   0.00000       0.00000    
     14348 BUTH     39       BUTH     LPO12    LPDO1   -0.288000       0.00000          -1   0.00000       0.00000    
     14349 BUTH     39       BUTH     LPO21    LPD     -0.302000       0.00000          -1   0.00000       0.00000    
     14350 BUTH     39       BUTH     LPO22    LPD     -0.303000       0.00000          -1   0.00000       0.00000    
     14351 BUTH     40       BUTH     C1       CD33A     2.05990       11.6110           0  -1.81190       1.18670    
     14352 BUTH     40       BUTH     DC1      DRUD     -2.33590      0.400000           0   0.00000       0.00000    
     14353 BUTH     40       BUTH     C2       CD32A     2.02070       11.6110           0  -1.59660       1.16930    
     14354 BUTH     40       BUTH     DC2      DRUD     -2.19270      0.400000           0   0.00000       0.00000    
     14355 BUTH     40       BUTH     C3       CD32A     1.98270       11.6110           0  -1.59660       1.16930    
     14356 BUTH     40       BUTH     DC3      DRUD     -2.19270      0.400000           0   0.00000       0.00000    
     14357 BUTH     40       BUTH     C4       CD2O3A    2.72690       11.6110           0  -1.26130       1.05430    
     14358 BUTH     40       BUTH     DC4      DRUD     -1.94890      0.400000           0   0.00000       0.00000    
     14359 BUTH     40       BUTH     O1       OD2C1A    1.46540       15.5994           0 -0.713100      0.569800    
     14360 BUTH     40       BUTH     DO1      DRUD     -1.46540      0.400000           0   0.00000       0.00000    
     14361 BUTH     40       BUTH     O2       OD31A     1.58240       15.5990           0 -0.831500      0.749400    
     14362 BUTH     40       BUTH     DO2      DRUD     -1.58240      0.400000           0   0.00000       0.00000    
     14363 BUTH     40       BUTH     H1       HDA3A    0.900000E-01   1.00800           0   0.00000       0.00000    
     14364 BUTH     40       BUTH     H2       HDA3A    0.900000E-01   1.00800           0   0.00000       0.00000    
     14365 BUTH     40       BUTH     H3       HDA3A    0.900000E-01   1.00800           0   0.00000       0.00000    
     14366 BUTH     40       BUTH     H4       HDA2A    0.900000E-01   1.00800           0   0.00000       0.00000    
     14367 BUTH     40       BUTH     H5       HDA2A    0.900000E-01   1.00800           0   0.00000       0.00000    
     14368 BUTH     40       BUTH     H6       HDA2A    0.900000E-01   1.00800           0   0.00000       0.00000    
     14369 BUTH     40       BUTH     H7       HDA2A    0.900000E-01   1.00800           0   0.00000       0.00000    
     14370 BUTH     40       BUTH     H8       HDP1A    0.430000       1.00800           0   0.00000       0.00000    
     14371 BUTH     40       BUTH     H9       DUMH      0.00000       1.00800           0   0.00000       0.00000    
     14372 BUTH     40       BUTH     LPO11    LPDO1   -0.287000       0.00000          -1   0.00000       0.00000    
     14373 BUTH     40       BUTH     LPO12    LPDO1   -0.288000       0.00000          -1   0.00000       0.00000    
     14374 BUTH     40       BUTH     LPO21    LPD     -0.302000       0.00000          -1   0.00000       0.00000    
     14375 BUTH     40       BUTH     LPO22    LPD     -0.303000       0.00000          -1   0.00000       0.00000    
     14376 BUTH     41       BUTH     C1       CD33A     2.05990       11.6110           0  -1.81190       1.18670    
     14377 BUTH     41       BUTH     DC1      DRUD     -2.33590      0.400000           0   0.00000       0.00000    
     14378 BUTH     41       BUTH     C2       CD32A     2.02070       11.6110           0  -1.59660       1.16930    
     14379 BUTH     41       BUTH     DC2      DRUD     -2.19270      0.400000           0   0.00000       0.00000    
     14380 BUTH     41       BUTH     C3       CD32A     1.98270       11.6110           0  -1.59660       1.16930    
     14381 BUTH     41       BUTH     DC3      DRUD     -2.19270      0.400000           0   0.00000       0.00000    
     14382 BUTH     41       BUTH     C4       CD2O3A    2.72690       11.6110           0  -1.26130       1.05430    
     14383 BUTH     41       BUTH     DC4      DRUD     -1.94890      0.400000           0   0.00000       0.00000    
     14384 BUTH     41       BUTH     O1       OD2C1A    1.46540       15.5994           0 -0.713100      0.569800    
     14385 BUTH     41       BUTH     DO1      DRUD     -1.46540      0.400000           0   0.00000       0.00000    
     14386 BUTH     41       BUTH     O2       OD31A     1.58240       15.5990           0 -0.831500      0.749400    
     14387 BUTH     41       BUTH     DO2      DRUD     -1.58240      0.400000           0   0.00000       0.00000    
     14388 BUTH     41       BUTH     H1       HDA3A    0.900000E-01   1.00800           0   0.00000       0.00000    
     14389 BUTH     41       BUTH     H2       HDA3A    0.900000E-01   1.00800           0   0.00000       0.00000    
     14390 BUTH     41       BUTH     H3       HDA3A    0.900000E-01   1.00800           0   0.00000       0.00000    
     14391 BUTH     41       BUTH     H4       HDA2A    0.900000E-01   1.00800           0   0.00000       0.00000    
     14392 BUTH     41       BUTH     H5       HDA2A    0.900000E-01   1.00800           0   0.00000       0.00000    
     14393 BUTH     41       BUTH     H6       HDA2A    0.900000E-01   1.00800           0   0.00000       0.00000    
     14394 BUTH     41       BUTH     H7       HDA2A    0.900000E-01   1.00800           0   0.00000       0.00000    
     14395 BUTH     41       BUTH     H8       HDP1A    0.430000       1.00800           0   0.00000       0.00000    
     14396 BUTH     41       BUTH     H9       DUMH      0.00000       1.00800           0   0.00000       0.00000    
     14397 BUTH     41       BUTH     LPO11    LPDO1   -0.287000       0.00000          -1   0.00000       0.00000    
     14398 BUTH     41       BUTH     LPO12    LPDO1   -0.288000       0.00000          -1   0.00000       0.00000    
     14399 BUTH     41       BUTH     LPO21    LPD     -0.302000       0.00000          -1   0.00000       0.00000    
     14400 BUTH     41       BUTH     LPO22    LPD     -0.303000       0.00000          -1   0.00000       0.00000    
     14401 BUTH     42       BUTH     C1       CD33A     2.05990       11.6110           0  -1.81190       1.18670    
     14402 BUTH     42       BUTH     DC1      DRUD     -2.33590      0.400000           0   0.00000       0.00000    
     14403 BUTH     42       BUTH     C2       CD32A     2.02070       11.6110           0  -1.59660       1.16930    
     14404 BUTH     42       BUTH     DC2      DRUD     -2.19270      0.400000           0   0.00000       0.00000    
     14405 BUTH     42       BUTH     C3       CD32A     1.98270       11.6110           0  -1.59660       1.16930    
     14406 BUTH     42       BUTH     DC3      DRUD     -2.19270      0.400000           0   0.00000       0.00000    
     14407 BUTH     42       BUTH     C4       CD2O3A    2.72690       11.6110           0  -1.26130       1.05430    
     14408 BUTH     42       BUTH     DC4      DRUD     -1.94890      0.400000           0   0.00000       0.00000    
     14409 BUTH     42       BUTH     O1       OD2C1A    1.46540       15.5994           0 -0.713100      0.569800    
     14410 BUTH     42       BUTH     DO1      DRUD     -1.46540      0.400000           0   0.00000       0.00000    
     14411 BUTH     42       BUTH     O2       OD31A     1.58240       15.5990           0 -0.831500      0.749400    
     14412 BUTH     42       BUTH     DO2      DRUD     -1.58240      0.400000           0   0.00000       0.00000    
     14413 BUTH     42       BUTH     H1       HDA3A    0.900000E-01   1.00800           0   0.00000       0.00000    
     14414 BUTH     42       BUTH     H2       HDA3A    0.900000E-01   1.00800           0   0.00000       0.00000    
     14415 BUTH     42       BUTH     H3       HDA3A    0.900000E-01   1.00800           0   0.00000       0.00000    
     14416 BUTH     42       BUTH     H4       HDA2A    0.900000E-01   1.00800           0   0.00000       0.00000    
     14417 BUTH     42       BUTH     H5       HDA2A    0.900000E-01   1.00800           0   0.00000       0.00000    
     14418 BUTH     42       BUTH     H6       HDA2A    0.900000E-01   1.00800           0   0.00000       0.00000    
     14419 BUTH     42       BUTH     H7       HDA2A    0.900000E-01   1.00800           0   0.00000       0.00000    
     14420 BUTH     42       BUTH     H8       HDP1A    0.430000       1.00800           0   0.00000       0.00000    
     14421 BUTH     42       BUTH     H9       DUMH      0.00000       1.00800           0   0.00000       0.00000    
     14422 BUTH     42       BUTH     LPO11    LPDO1   -0.287000       0.00000          -1   0.00000       0.00000    
     14423 BUTH     42       BUTH     LPO12    LPDO1   -0.288000       0.00000          -1   0.00000       0.00000    
     14424 BUTH     42       BUTH     LPO21    LPD     -0.302000       0.00000          -1   0.00000       0.00000    
     14425 BUTH     42       BUTH     LPO22    LPD     -0.303000       0.00000          -1   0.00000       0.00000    
     14426 BUTH     43       BUTH     C1       CD33A     2.05990       11.6110           0  -1.81190       1.18670    
     14427 BUTH     43       BUTH     DC1      DRUD     -2.33590      0.400000           0   0.00000       0.00000    
     14428 BUTH     43       BUTH     C2       CD32A     2.02070       11.6110           0  -1.59660       1.16930    
     14429 BUTH     43       BUTH     DC2      DRUD     -2.19270      0.400000           0   0.00000       0.00000    
     14430 BUTH     43       BUTH     C3       CD32A     1.98270       11.6110           0  -1.59660       1.16930    
     14431 BUTH     43       BUTH     DC3      DRUD     -2.19270      0.400000           0   0.00000       0.00000    
     14432 BUTH     43       BUTH     C4       CD2O3A    2.72690       11.6110           0  -1.26130       1.05430    
     14433 BUTH     43       BUTH     DC4      DRUD     -1.94890      0.400000           0   0.00000       0.00000    
     14434 BUTH     43       BUTH     O1       OD2C1A    1.46540       15.5994           0 -0.713100      0.569800    
     14435 BUTH     43       BUTH     DO1      DRUD     -1.46540      0.400000           0   0.00000       0.00000    
     14436 BUTH     43       BUTH     O2       OD31A     1.58240       15.5990           0 -0.831500      0.749400    
     14437 BUTH     43       BUTH     DO2      DRUD     -1.58240      0.400000           0   0.00000       0.00000    
     14438 BUTH     43       BUTH     H1       HDA3A    0.900000E-01   1.00800           0   0.00000       0.00000    
     14439 BUTH     43       BUTH     H2       HDA3A    0.900000E-01   1.00800           0   0.00000       0.00000    
     14440 BUTH     43       BUTH     H3       HDA3A    0.900000E-01   1.00800           0   0.00000       0.00000    
     14441 BUTH     43       BUTH     H4       HDA2A    0.900000E-01   1.00800           0   0.00000       0.00000    
     14442 BUTH     43       BUTH     H5       HDA2A    0.900000E-01   1.00800           0   0.00000       0.00000    
     14443 BUTH     43       BUTH     H6       HDA2A    0.900000E-01   1.00800           0   0.00000       0.00000    
     14444 BUTH     43       BUTH     H7       HDA2A    0.900000E-01   1.00800           0   0.00000       0.00000    
     14445 BUTH     43       BUTH     H8       HDP1A    0.430000       1.00800           0   0.00000       0.00000    
     14446 BUTH     43       BUTH     H9       DUMH      0.00000       1.00800           0   0.00000       0.00000    
     14447 BUTH     43       BUTH     LPO11    LPDO1   -0.287000       0.00000          -1   0.00000       0.00000    
     14448 BUTH     43       BUTH     LPO12    LPDO1   -0.288000       0.00000          -1   0.00000       0.00000    
     14449 BUTH     43       BUTH     LPO21    LPD     -0.302000       0.00000          -1   0.00000       0.00000    
     14450 BUTH     43       BUTH     LPO22    LPD     -0.303000       0.00000          -1   0.00000       0.00000    
     14451 BUTH     44       BUTH     C1       CD33A     2.05990       11.6110           0  -1.81190       1.18670    
     14452 BUTH     44       BUTH     DC1      DRUD     -2.33590      0.400000           0   0.00000       0.00000    
     14453 BUTH     44       BUTH     C2       CD32A     2.02070       11.6110           0  -1.59660       1.16930    
     14454 BUTH     44       BUTH     DC2      DRUD     -2.19270      0.400000           0   0.00000       0.00000    
     14455 BUTH     44       BUTH     C3       CD32A     1.98270       11.6110           0  -1.59660       1.16930    
     14456 BUTH     44       BUTH     DC3      DRUD     -2.19270      0.400000           0   0.00000       0.00000    
     14457 BUTH     44       BUTH     C4       CD2O3A    2.72690       11.6110           0  -1.26130       1.05430    
     14458 BUTH     44       BUTH     DC4      DRUD     -1.94890      0.400000           0   0.00000       0.00000    
     14459 BUTH     44       BUTH     O1       OD2C1A    1.46540       15.5994           0 -0.713100      0.569800    
     14460 BUTH     44       BUTH     DO1      DRUD     -1.46540      0.400000           0   0.00000       0.00000    
     14461 BUTH     44       BUTH     O2       OD31A     1.58240       15.5990           0 -0.831500      0.749400    
     14462 BUTH     44       BUTH     DO2      DRUD     -1.58240      0.400000           0   0.00000       0.00000    
     14463 BUTH     44       BUTH     H1       HDA3A    0.900000E-01   1.00800           0   0.00000       0.00000    
     14464 BUTH     44       BUTH     H2       HDA3A    0.900000E-01   1.00800           0   0.00000       0.00000    
     14465 BUTH     44       BUTH     H3       HDA3A    0.900000E-01   1.00800           0   0.00000       0.00000    
     14466 BUTH     44       BUTH     H4       HDA2A    0.900000E-01   1.00800           0   0.00000       0.00000    
     14467 BUTH     44       BUTH     H5       HDA2A    0.900000E-01   1.00800           0   0.00000       0.00000    
     14468 BUTH     44       BUTH     H6       HDA2A    0.900000E-01   1.00800           0   0.00000       0.00000    
     14469 BUTH     44       BUTH     H7       HDA2A    0.900000E-01   1.00800           0   0.00000       0.00000    
     14470 BUTH     44       BUTH     H8       HDP1A    0.430000       1.00800           0   0.00000       0.00000    
     14471 BUTH     44       BUTH     H9       DUMH      0.00000       1.00800           0   0.00000       0.00000    
     14472 BUTH     44       BUTH     LPO11    LPDO1   -0.287000       0.00000          -1   0.00000       0.00000    
     14473 BUTH     44       BUTH     LPO12    LPDO1   -0.288000       0.00000          -1   0.00000       0.00000    
     14474 BUTH     44       BUTH     LPO21    LPD     -0.302000       0.00000          -1   0.00000       0.00000    
     14475 BUTH     44       BUTH     LPO22    LPD     -0.303000       0.00000          -1   0.00000       0.00000    
     14476 BUTH     45       BUTH     C1       CD33A     2.05990       11.6110           0  -1.81190       1.18670    
     14477 BUTH     45       BUTH     DC1      DRUD     -2.33590      0.400000           0   0.00000       0.00000    
     14478 BUTH     45       BUTH     C2       CD32A     2.02070       11.6110           0  -1.59660       1.16930    
     14479 BUTH     45       BUTH     DC2      DRUD     -2.19270      0.400000           0   0.00000       0.00000    
     14480 BUTH     45       BUTH     C3       CD32A     1.98270       11.6110           0  -1.59660       1.16930    
     14481 BUTH     45       BUTH     DC3      DRUD     -2.19270      0.400000           0   0.00000       0.00000    
     14482 BUTH     45       BUTH     C4       CD2O3A    2.72690       11.6110           0  -1.26130       1.05430    
     14483 BUTH     45       BUTH     DC4      DRUD     -1.94890      0.400000           0   0.00000       0.00000    
     14484 BUTH     45       BUTH     O1       OD2C1A    1.46540       15.5994           0 -0.713100      0.569800    
     14485 BUTH     45       BUTH     DO1      DRUD     -1.46540      0.400000           0   0.00000       0.00000    
     14486 BUTH     45       BUTH     O2       OD31A     1.58240       15.5990           0 -0.831500      0.749400    
     14487 BUTH     45       BUTH     DO2      DRUD     -1.58240      0.400000           0   0.00000       0.00000    
     14488 BUTH     45       BUTH     H1       HDA3A    0.900000E-01   1.00800           0   0.00000       0.00000    
     14489 BUTH     45       BUTH     H2       HDA3A    0.900000E-01   1.00800           0   0.00000       0.00000    
     14490 BUTH     45       BUTH     H3       HDA3A    0.900000E-01   1.00800           0   0.00000       0.00000    
     14491 BUTH     45       BUTH     H4       HDA2A    0.900000E-01   1.00800           0   0.00000       0.00000    
     14492 BUTH     45       BUTH     H5       HDA2A    0.900000E-01   1.00800           0   0.00000       0.00000    
     14493 BUTH     45       BUTH     H6       HDA2A    0.900000E-01   1.00800           0   0.00000       0.00000    
     14494 BUTH     45       BUTH     H7       HDA2A    0.900000E-01   1.00800           0   0.00000       0.00000    
     14495 BUTH     45       BUTH     H8       HDP1A    0.430000       1.00800           0   0.00000       0.00000    
     14496 BUTH     45       BUTH     H9       DUMH      0.00000       1.00800           0   0.00000       0.00000    
     14497 BUTH     45       BUTH     LPO11    LPDO1   -0.287000       0.00000          -1   0.00000       0.00000    
     14498 BUTH     45       BUTH     LPO12    LPDO1   -0.288000       0.00000          -1   0.00000       0.00000    
     14499 BUTH     45       BUTH     LPO21    LPD     -0.302000       0.00000          -1   0.00000       0.00000    
     14500 BUTH     45       BUTH     LPO22    LPD     -0.303000       0.00000          -1   0.00000       0.00000    
     14501 BUTH     46       BUTH     C1       CD33A     2.05990       11.6110           0  -1.81190       1.18670    
     14502 BUTH     46       BUTH     DC1      DRUD     -2.33590      0.400000           0   0.00000       0.00000    
     14503 BUTH     46       BUTH     C2       CD32A     2.02070       11.6110           0  -1.59660       1.16930    
     14504 BUTH     46       BUTH     DC2      DRUD     -2.19270      0.400000           0   0.00000       0.00000    
     14505 BUTH     46       BUTH     C3       CD32A     1.98270       11.6110           0  -1.59660       1.16930    
     14506 BUTH     46       BUTH     DC3      DRUD     -2.19270      0.400000           0   0.00000       0.00000    
     14507 BUTH     46       BUTH     C4       CD2O3A    2.72690       11.6110           0  -1.26130       1.05430    
     14508 BUTH     46       BUTH     DC4      DRUD     -1.94890      0.400000           0   0.00000       0.00000    
     14509 BUTH     46       BUTH     O1       OD2C1A    1.46540       15.5994           0 -0.713100      0.569800    
     14510 BUTH     46       BUTH     DO1      DRUD     -1.46540      0.400000           0   0.00000       0.00000    
     14511 BUTH     46       BUTH     O2       OD31A     1.58240       15.5990           0 -0.831500      0.749400    
     14512 BUTH     46       BUTH     DO2      DRUD     -1.58240      0.400000           0   0.00000       0.00000    
     14513 BUTH     46       BUTH     H1       HDA3A    0.900000E-01   1.00800           0   0.00000       0.00000    
     14514 BUTH     46       BUTH     H2       HDA3A    0.900000E-01   1.00800           0   0.00000       0.00000    
     14515 BUTH     46       BUTH     H3       HDA3A    0.900000E-01   1.00800           0   0.00000       0.00000    
     14516 BUTH     46       BUTH     H4       HDA2A    0.900000E-01   1.00800           0   0.00000       0.00000    
     14517 BUTH     46       BUTH     H5       HDA2A    0.900000E-01   1.00800           0   0.00000       0.00000    
     14518 BUTH     46       BUTH     H6       HDA2A    0.900000E-01   1.00800           0   0.00000       0.00000    
     14519 BUTH     46       BUTH     H7       HDA2A    0.900000E-01   1.00800           0   0.00000       0.00000    
     14520 BUTH     46       BUTH     H8       HDP1A    0.430000       1.00800           0   0.00000       0.00000    
     14521 BUTH     46       BUTH     H9       DUMH      0.00000       1.00800           0   0.00000       0.00000    
     14522 BUTH     46       BUTH     LPO11    LPDO1   -0.287000       0.00000          -1   0.00000       0.00000    
     14523 BUTH     46       BUTH     LPO12    LPDO1   -0.288000       0.00000          -1   0.00000       0.00000    
     14524 BUTH     46       BUTH     LPO21    LPD     -0.302000       0.00000          -1   0.00000       0.00000    
     14525 BUTH     46       BUTH     LPO22    LPD     -0.303000       0.00000          -1   0.00000       0.00000    
     14526 BUTH     47       BUTH     C1       CD33A     2.05990       11.6110           0  -1.81190       1.18670    
     14527 BUTH     47       BUTH     DC1      DRUD     -2.33590      0.400000           0   0.00000       0.00000    
     14528 BUTH     47       BUTH     C2       CD32A     2.02070       11.6110           0  -1.59660       1.16930    
     14529 BUTH     47       BUTH     DC2      DRUD     -2.19270      0.400000           0   0.00000       0.00000    
     14530 BUTH     47       BUTH     C3       CD32A     1.98270       11.6110           0  -1.59660       1.16930    
     14531 BUTH     47       BUTH     DC3      DRUD     -2.19270      0.400000           0   0.00000       0.00000    
     14532 BUTH     47       BUTH     C4       CD2O3A    2.72690       11.6110           0  -1.26130       1.05430    
     14533 BUTH     47       BUTH     DC4      DRUD     -1.94890      0.400000           0   0.00000       0.00000    
     14534 BUTH     47       BUTH     O1       OD2C1A    1.46540       15.5994           0 -0.713100      0.569800    
     14535 BUTH     47       BUTH     DO1      DRUD     -1.46540      0.400000           0   0.00000       0.00000    
     14536 BUTH     47       BUTH     O2       OD31A     1.58240       15.5990           0 -0.831500      0.749400    
     14537 BUTH     47       BUTH     DO2      DRUD     -1.58240      0.400000           0   0.00000       0.00000    
     14538 BUTH     47       BUTH     H1       HDA3A    0.900000E-01   1.00800           0   0.00000       0.00000    
     14539 BUTH     47       BUTH     H2       HDA3A    0.900000E-01   1.00800           0   0.00000       0.00000    
     14540 BUTH     47       BUTH     H3       HDA3A    0.900000E-01   1.00800           0   0.00000       0.00000    
     14541 BUTH     47       BUTH     H4       HDA2A    0.900000E-01   1.00800           0   0.00000       0.00000    
     14542 BUTH     47       BUTH     H5       HDA2A    0.900000E-01   1.00800           0   0.00000       0.00000    
     14543 BUTH     47       BUTH     H6       HDA2A    0.900000E-01   1.00800           0   0.00000       0.00000    
     14544 BUTH     47       BUTH     H7       HDA2A    0.900000E-01   1.00800           0   0.00000       0.00000    
     14545 BUTH     47       BUTH     H8       HDP1A    0.430000       1.00800           0   0.00000       0.00000    
     14546 BUTH     47       BUTH     H9       DUMH      0.00000       1.00800           0   0.00000       0.00000    
     14547 BUTH     47       BUTH     LPO11    LPDO1   -0.287000       0.00000          -1   0.00000       0.00000    
     14548 BUTH     47       BUTH     LPO12    LPDO1   -0.288000       0.00000          -1   0.00000       0.00000    
     14549 BUTH     47       BUTH     LPO21    LPD     -0.302000       0.00000          -1   0.00000       0.00000    
     14550 BUTH     47       BUTH     LPO22    LPD     -0.303000       0.00000          -1   0.00000       0.00000    
     14551 BUTH     48       BUTH     C1       CD33A     2.05990       11.6110           0  -1.81190       1.18670    
     14552 BUTH     48       BUTH     DC1      DRUD     -2.33590      0.400000           0   0.00000       0.00000    
     14553 BUTH     48       BUTH     C2       CD32A     2.02070       11.6110           0  -1.59660       1.16930    
     14554 BUTH     48       BUTH     DC2      DRUD     -2.19270      0.400000           0   0.00000       0.00000    
     14555 BUTH     48       BUTH     C3       CD32A     1.98270       11.6110           0  -1.59660       1.16930    
     14556 BUTH     48       BUTH     DC3      DRUD     -2.19270      0.400000           0   0.00000       0.00000    
     14557 BUTH     48       BUTH     C4       CD2O3A    2.72690       11.6110           0  -1.26130       1.05430    
     14558 BUTH     48       BUTH     DC4      DRUD     -1.94890      0.400000           0   0.00000       0.00000    
     14559 BUTH     48       BUTH     O1       OD2C1A    1.46540       15.5994           0 -0.713100      0.569800    
     14560 BUTH     48       BUTH     DO1      DRUD     -1.46540      0.400000           0   0.00000       0.00000    
     14561 BUTH     48       BUTH     O2       OD31A     1.58240       15.5990           0 -0.831500      0.749400    
     14562 BUTH     48       BUTH     DO2      DRUD     -1.58240      0.400000           0   0.00000       0.00000    
     14563 BUTH     48       BUTH     H1       HDA3A    0.900000E-01   1.00800           0   0.00000       0.00000    
     14564 BUTH     48       BUTH     H2       HDA3A    0.900000E-01   1.00800           0   0.00000       0.00000    
     14565 BUTH     48       BUTH     H3       HDA3A    0.900000E-01   1.00800           0   0.00000       0.00000    
     14566 BUTH     48       BUTH     H4       HDA2A    0.900000E-01   1.00800           0   0.00000       0.00000    
     14567 BUTH     48       BUTH     H5       HDA2A    0.900000E-01   1.00800           0   0.00000       0.00000    
     14568 BUTH     48       BUTH     H6       HDA2A    0.900000E-01   1.00800           0   0.00000       0.00000    
     14569 BUTH     48       BUTH     H7       HDA2A    0.900000E-01   1.00800           0   0.00000       0.00000    
     14570 BUTH     48       BUTH     H8       HDP1A    0.430000       1.00800           0   0.00000       0.00000    
     14571 BUTH     48       BUTH     H9       DUMH      0.00000       1.00800           0   0.00000       0.00000    
     14572 BUTH     48       BUTH     LPO11    LPDO1   -0.287000       0.00000          -1   0.00000       0.00000    
     14573 BUTH     48       BUTH     LPO12    LPDO1   -0.288000       0.00000          -1   0.00000       0.00000    
     14574 BUTH     48       BUTH     LPO21    LPD     -0.302000       0.00000          -1   0.00000       0.00000    
     14575 BUTH     48       BUTH     LPO22    LPD     -0.303000       0.00000          -1   0.00000       0.00000    
     14576 BUTH     49       BUTH     C1       CD33A     2.05990       11.6110           0  -1.81190       1.18670    
     14577 BUTH     49       BUTH     DC1      DRUD     -2.33590      0.400000           0   0.00000       0.00000    
     14578 BUTH     49       BUTH     C2       CD32A     2.02070       11.6110           0  -1.59660       1.16930    
     14579 BUTH     49       BUTH     DC2      DRUD     -2.19270      0.400000           0   0.00000       0.00000    
     14580 BUTH     49       BUTH     C3       CD32A     1.98270       11.6110           0  -1.59660       1.16930    
     14581 BUTH     49       BUTH     DC3      DRUD     -2.19270      0.400000           0   0.00000       0.00000    
     14582 BUTH     49       BUTH     C4       CD2O3A    2.72690       11.6110           0  -1.26130       1.05430    
     14583 BUTH     49       BUTH     DC4      DRUD     -1.94890      0.400000           0   0.00000       0.00000    
     14584 BUTH     49       BUTH     O1       OD2C1A    1.46540       15.5994           0 -0.713100      0.569800    
     14585 BUTH     49       BUTH     DO1      DRUD     -1.46540      0.400000           0   0.00000       0.00000    
     14586 BUTH     49       BUTH     O2       OD31A     1.58240       15.5990           0 -0.831500      0.749400    
     14587 BUTH     49       BUTH     DO2      DRUD     -1.58240      0.400000           0   0.00000       0.00000    
     14588 BUTH     49       BUTH     H1       HDA3A    0.900000E-01   1.00800           0   0.00000       0.00000    
     14589 BUTH     49       BUTH     H2       HDA3A    0.900000E-01   1.00800           0   0.00000       0.00000    
     14590 BUTH     49       BUTH     H3       HDA3A    0.900000E-01   1.00800           0   0.00000       0.00000    
     14591 BUTH     49       BUTH     H4       HDA2A    0.900000E-01   1.00800           0   0.00000       0.00000    
     14592 BUTH     49       BUTH     H5       HDA2A    0.900000E-01   1.00800           0   0.00000       0.00000    
     14593 BUTH     49       BUTH     H6       HDA2A    0.900000E-01   1.00800           0   0.00000       0.00000    
     14594 BUTH     49       BUTH     H7       HDA2A    0.900000E-01   1.00800           0   0.00000       0.00000    
     14595 BUTH     49       BUTH     H8       HDP1A    0.430000       1.00800           0   0.00000       0.00000    
     14596 BUTH     49       BUTH     H9       DUMH      0.00000       1.00800           0   0.00000       0.00000    
     14597 BUTH     49       BUTH     LPO11    LPDO1   -0.287000       0.00000          -1   0.00000       0.00000    
     14598 BUTH     49       BUTH     LPO12    LPDO1   -0.288000       0.00000          -1   0.00000       0.00000    
     14599 BUTH     49       BUTH     LPO21    LPD     -0.302000       0.00000          -1   0.00000       0.00000    
     14600 BUTH     49       BUTH     LPO22    LPD     -0.303000       0.00000          -1   0.00000       0.00000    
     14601 BUTH     50       BUTH     C1       CD33A     2.05990       11.6110           0  -1.81190       1.18670    
     14602 BUTH     50       BUTH     DC1      DRUD     -2.33590      0.400000           0   0.00000       0.00000    
     14603 BUTH     50       BUTH     C2       CD32A     2.02070       11.6110           0  -1.59660       1.16930    
     14604 BUTH     50       BUTH     DC2      DRUD     -2.19270      0.400000           0   0.00000       0.00000    
     14605 BUTH     50       BUTH     C3       CD32A     1.98270       11.6110           0  -1.59660       1.16930    
     14606 BUTH     50       BUTH     DC3      DRUD     -2.19270      0.400000           0   0.00000       0.00000    
     14607 BUTH     50       BUTH     C4       CD2O3A    2.72690       11.6110           0  -1.26130       1.05430    
     14608 BUTH     50       BUTH     DC4      DRUD     -1.94890      0.400000           0   0.00000       0.00000    
     14609 BUTH     50       BUTH     O1       OD2C1A    1.46540       15.5994           0 -0.713100      0.569800    
     14610 BUTH     50       BUTH     DO1      DRUD     -1.46540      0.400000           0   0.00000       0.00000    
     14611 BUTH     50       BUTH     O2       OD31A     1.58240       15.5990           0 -0.831500      0.749400    
     14612 BUTH     50       BUTH     DO2      DRUD     -1.58240      0.400000           0   0.00000       0.00000    
     14613 BUTH     50       BUTH     H1       HDA3A    0.900000E-01   1.00800           0   0.00000       0.00000    
     14614 BUTH     50       BUTH     H2       HDA3A    0.900000E-01   1.00800           0   0.00000       0.00000    
     14615 BUTH     50       BUTH     H3       HDA3A    0.900000E-01   1.00800           0   0.00000       0.00000    
     14616 BUTH     50       BUTH     H4       HDA2A    0.900000E-01   1.00800           0   0.00000       0.00000    
     14617 BUTH     50       BUTH     H5       HDA2A    0.900000E-01   1.00800           0   0.00000       0.00000    
     14618 BUTH     50       BUTH     H6       HDA2A    0.900000E-01   1.00800           0   0.00000       0.00000    
     14619 BUTH     50       BUTH     H7       HDA2A    0.900000E-01   1.00800           0   0.00000       0.00000    
     14620 BUTH     50       BUTH     H8       HDP1A    0.430000       1.00800           0   0.00000       0.00000    
     14621 BUTH     50       BUTH     H9       DUMH      0.00000       1.00800           0   0.00000       0.00000    
     14622 BUTH     50       BUTH     LPO11    LPDO1   -0.287000       0.00000          -1   0.00000       0.00000    
     14623 BUTH     50       BUTH     LPO12    LPDO1   -0.288000       0.00000          -1   0.00000       0.00000    
     14624 BUTH     50       BUTH     LPO21    LPD     -0.302000       0.00000          -1   0.00000       0.00000    
     14625 BUTH     50       BUTH     LPO22    LPD     -0.303000       0.00000          -1   0.00000       0.00000    
     14626 BUTH     51       BUTH     C1       CD33A     2.05990       11.6110           0  -1.81190       1.18670    
     14627 BUTH     51       BUTH     DC1      DRUD     -2.33590      0.400000           0   0.00000       0.00000    
     14628 BUTH     51       BUTH     C2       CD32A     2.02070       11.6110           0  -1.59660       1.16930    
     14629 BUTH     51       BUTH     DC2      DRUD     -2.19270      0.400000           0   0.00000       0.00000    
     14630 BUTH     51       BUTH     C3       CD32A     1.98270       11.6110           0  -1.59660       1.16930    
     14631 BUTH     51       BUTH     DC3      DRUD     -2.19270      0.400000           0   0.00000       0.00000    
     14632 BUTH     51       BUTH     C4       CD2O3A    2.72690       11.6110           0  -1.26130       1.05430    
     14633 BUTH     51       BUTH     DC4      DRUD     -1.94890      0.400000           0   0.00000       0.00000    
     14634 BUTH     51       BUTH     O1       OD2C1A    1.46540       15.5994           0 -0.713100      0.569800    
     14635 BUTH     51       BUTH     DO1      DRUD     -1.46540      0.400000           0   0.00000       0.00000    
     14636 BUTH     51       BUTH     O2       OD31A     1.58240       15.5990           0 -0.831500      0.749400    
     14637 BUTH     51       BUTH     DO2      DRUD     -1.58240      0.400000           0   0.00000       0.00000    
     14638 BUTH     51       BUTH     H1       HDA3A    0.900000E-01   1.00800           0   0.00000       0.00000    
     14639 BUTH     51       BUTH     H2       HDA3A    0.900000E-01   1.00800           0   0.00000       0.00000    
     14640 BUTH     51       BUTH     H3       HDA3A    0.900000E-01   1.00800           0   0.00000       0.00000    
     14641 BUTH     51       BUTH     H4       HDA2A    0.900000E-01   1.00800           0   0.00000       0.00000    
     14642 BUTH     51       BUTH     H5       HDA2A    0.900000E-01   1.00800           0   0.00000       0.00000    
     14643 BUTH     51       BUTH     H6       HDA2A    0.900000E-01   1.00800           0   0.00000       0.00000    
     14644 BUTH     51       BUTH     H7       HDA2A    0.900000E-01   1.00800           0   0.00000       0.00000    
     14645 BUTH     51       BUTH     H8       HDP1A    0.430000       1.00800           0   0.00000       0.00000    
     14646 BUTH     51       BUTH     H9       DUMH      0.00000       1.00800           0   0.00000       0.00000    
     14647 BUTH     51       BUTH     LPO11    LPDO1   -0.287000       0.00000          -1   0.00000       0.00000    
     14648 BUTH     51       BUTH     LPO12    LPDO1   -0.288000       0.00000          -1   0.00000       0.00000    
     14649 BUTH     51       BUTH     LPO21    LPD     -0.302000       0.00000          -1   0.00000       0.00000    
     14650 BUTH     51       BUTH     LPO22    LPD     -0.303000       0.00000          -1   0.00000       0.00000    
     14651 BUTH     52       BUTH     C1       CD33A     2.05990       11.6110           0  -1.81190       1.18670    
     14652 BUTH     52       BUTH     DC1      DRUD     -2.33590      0.400000           0   0.00000       0.00000    
     14653 BUTH     52       BUTH     C2       CD32A     2.02070       11.6110           0  -1.59660       1.16930    
     14654 BUTH     52       BUTH     DC2      DRUD     -2.19270      0.400000           0   0.00000       0.00000    
     14655 BUTH     52       BUTH     C3       CD32A     1.98270       11.6110           0  -1.59660       1.16930    
     14656 BUTH     52       BUTH     DC3      DRUD     -2.19270      0.400000           0   0.00000       0.00000    
     14657 BUTH     52       BUTH     C4       CD2O3A    2.72690       11.6110           0  -1.26130       1.05430    
     14658 BUTH     52       BUTH     DC4      DRUD     -1.94890      0.400000           0   0.00000       0.00000    
     14659 BUTH     52       BUTH     O1       OD2C1A    1.46540       15.5994           0 -0.713100      0.569800    
     14660 BUTH     52       BUTH     DO1      DRUD     -1.46540      0.400000           0   0.00000       0.00000    
     14661 BUTH     52       BUTH     O2       OD31A     1.58240       15.5990           0 -0.831500      0.749400    
     14662 BUTH     52       BUTH     DO2      DRUD     -1.58240      0.400000           0   0.00000       0.00000    
     14663 BUTH     52       BUTH     H1       HDA3A    0.900000E-01   1.00800           0   0.00000       0.00000    
     14664 BUTH     52       BUTH     H2       HDA3A    0.900000E-01   1.00800           0   0.00000       0.00000    
     14665 BUTH     52       BUTH     H3       HDA3A    0.900000E-01   1.00800           0   0.00000       0.00000    
     14666 BUTH     52       BUTH     H4       HDA2A    0.900000E-01   1.00800           0   0.00000       0.00000    
     14667 BUTH     52       BUTH     H5       HDA2A    0.900000E-01   1.00800           0   0.00000       0.00000    
     14668 BUTH     52       BUTH     H6       HDA2A    0.900000E-01   1.00800           0   0.00000       0.00000    
     14669 BUTH     52       BUTH     H7       HDA2A    0.900000E-01   1.00800           0   0.00000       0.00000    
     14670 BUTH     52       BUTH     H8       HDP1A    0.430000       1.00800           0   0.00000       0.00000    
     14671 BUTH     52       BUTH     H9       DUMH      0.00000       1.00800           0   0.00000       0.00000    
     14672 BUTH     52       BUTH     LPO11    LPDO1   -0.287000       0.00000          -1   0.00000       0.00000    
     14673 BUTH     52       BUTH     LPO12    LPDO1   -0.288000       0.00000          -1   0.00000       0.00000    
     14674 BUTH     52       BUTH     LPO21    LPD     -0.302000       0.00000          -1   0.00000       0.00000    
     14675 BUTH     52       BUTH     LPO22    LPD     -0.303000       0.00000          -1   0.00000       0.00000    
     14676 BUTH     53       BUTH     C1       CD33A     2.05990       11.6110           0  -1.81190       1.18670    
     14677 BUTH     53       BUTH     DC1      DRUD     -2.33590      0.400000           0   0.00000       0.00000    
     14678 BUTH     53       BUTH     C2       CD32A     2.02070       11.6110           0  -1.59660       1.16930    
     14679 BUTH     53       BUTH     DC2      DRUD     -2.19270      0.400000           0   0.00000       0.00000    
     14680 BUTH     53       BUTH     C3       CD32A     1.98270       11.6110           0  -1.59660       1.16930    
     14681 BUTH     53       BUTH     DC3      DRUD     -2.19270      0.400000           0   0.00000       0.00000    
     14682 BUTH     53       BUTH     C4       CD2O3A    2.72690       11.6110           0  -1.26130       1.05430    
     14683 BUTH     53       BUTH     DC4      DRUD     -1.94890      0.400000           0   0.00000       0.00000    
     14684 BUTH     53       BUTH     O1       OD2C1A    1.46540       15.5994           0 -0.713100      0.569800    
     14685 BUTH     53       BUTH     DO1      DRUD     -1.46540      0.400000           0   0.00000       0.00000    
     14686 BUTH     53       BUTH     O2       OD31A     1.58240       15.5990           0 -0.831500      0.749400    
     14687 BUTH     53       BUTH     DO2      DRUD     -1.58240      0.400000           0   0.00000       0.00000    
     14688 BUTH     53       BUTH     H1       HDA3A    0.900000E-01   1.00800           0   0.00000       0.00000    
     14689 BUTH     53       BUTH     H2       HDA3A    0.900000E-01   1.00800           0   0.00000       0.00000    
     14690 BUTH     53       BUTH     H3       HDA3A    0.900000E-01   1.00800           0   0.00000       0.00000    
     14691 BUTH     53       BUTH     H4       HDA2A    0.900000E-01   1.00800           0   0.00000       0.00000    
     14692 BUTH     53       BUTH     H5       HDA2A    0.900000E-01   1.00800           0   0.00000       0.00000    
     14693 BUTH     53       BUTH     H6       HDA2A    0.900000E-01   1.00800           0   0.00000       0.00000    
     14694 BUTH     53       BUTH     H7       HDA2A    0.900000E-01   1.00800           0   0.00000       0.00000    
     14695 BUTH     53       BUTH     H8       HDP1A    0.430000       1.00800           0   0.00000       0.00000    
     14696 BUTH     53       BUTH     H9       DUMH      0.00000       1.00800           0   0.00000       0.00000    
     14697 BUTH     53       BUTH     LPO11    LPDO1   -0.287000       0.00000          -1   0.00000       0.00000    
     14698 BUTH     53       BUTH     LPO12    LPDO1   -0.288000       0.00000          -1   0.00000       0.00000    
     14699 BUTH     53       BUTH     LPO21    LPD     -0.302000       0.00000          -1   0.00000       0.00000    
     14700 BUTH     53       BUTH     LPO22    LPD     -0.303000       0.00000          -1   0.00000       0.00000    
     14701 BUTH     54       BUTH     C1       CD33A     2.05990       11.6110           0  -1.81190       1.18670    
     14702 BUTH     54       BUTH     DC1      DRUD     -2.33590      0.400000           0   0.00000       0.00000    
     14703 BUTH     54       BUTH     C2       CD32A     2.02070       11.6110           0  -1.59660       1.16930    
     14704 BUTH     54       BUTH     DC2      DRUD     -2.19270      0.400000           0   0.00000       0.00000    
     14705 BUTH     54       BUTH     C3       CD32A     1.98270       11.6110           0  -1.59660       1.16930    
     14706 BUTH     54       BUTH     DC3      DRUD     -2.19270      0.400000           0   0.00000       0.00000    
     14707 BUTH     54       BUTH     C4       CD2O3A    2.72690       11.6110           0  -1.26130       1.05430    
     14708 BUTH     54       BUTH     DC4      DRUD     -1.94890      0.400000           0   0.00000       0.00000    
     14709 BUTH     54       BUTH     O1       OD2C1A    1.46540       15.5994           0 -0.713100      0.569800    
     14710 BUTH     54       BUTH     DO1      DRUD     -1.46540      0.400000           0   0.00000       0.00000    
     14711 BUTH     54       BUTH     O2       OD31A     1.58240       15.5990           0 -0.831500      0.749400    
     14712 BUTH     54       BUTH     DO2      DRUD     -1.58240      0.400000           0   0.00000       0.00000    
     14713 BUTH     54       BUTH     H1       HDA3A    0.900000E-01   1.00800           0   0.00000       0.00000    
     14714 BUTH     54       BUTH     H2       HDA3A    0.900000E-01   1.00800           0   0.00000       0.00000    
     14715 BUTH     54       BUTH     H3       HDA3A    0.900000E-01   1.00800           0   0.00000       0.00000    
     14716 BUTH     54       BUTH     H4       HDA2A    0.900000E-01   1.00800           0   0.00000       0.00000    
     14717 BUTH     54       BUTH     H5       HDA2A    0.900000E-01   1.00800           0   0.00000       0.00000    
     14718 BUTH     54       BUTH     H6       HDA2A    0.900000E-01   1.00800           0   0.00000       0.00000    
     14719 BUTH     54       BUTH     H7       HDA2A    0.900000E-01   1.00800           0   0.00000       0.00000    
     14720 BUTH     54       BUTH     H8       HDP1A    0.430000       1.00800           0   0.00000       0.00000    
     14721 BUTH     54       BUTH     H9       DUMH      0.00000       1.00800           0   0.00000       0.00000    
     14722 BUTH     54       BUTH     LPO11    LPDO1   -0.287000       0.00000          -1   0.00000       0.00000    
     14723 BUTH     54       BUTH     LPO12    LPDO1   -0.288000       0.00000          -1   0.00000       0.00000    
     14724 BUTH     54       BUTH     LPO21    LPD     -0.302000       0.00000          -1   0.00000       0.00000    
     14725 BUTH     54       BUTH     LPO22    LPD     -0.303000       0.00000          -1   0.00000       0.00000    
     14726 BUTH     55       BUTH     C1       CD33A     2.05990       11.6110           0  -1.81190       1.18670    
     14727 BUTH     55       BUTH     DC1      DRUD     -2.33590      0.400000           0   0.00000       0.00000    
     14728 BUTH     55       BUTH     C2       CD32A     2.02070       11.6110           0  -1.59660       1.16930    
     14729 BUTH     55       BUTH     DC2      DRUD     -2.19270      0.400000           0   0.00000       0.00000    
     14730 BUTH     55       BUTH     C3       CD32A     1.98270       11.6110           0  -1.59660       1.16930    
     14731 BUTH     55       BUTH     DC3      DRUD     -2.19270      0.400000           0   0.00000       0.00000    
     14732 BUTH     55       BUTH     C4       CD2O3A    2.72690       11.6110           0  -1.26130       1.05430    
     14733 BUTH     55       BUTH     DC4      DRUD     -1.94890      0.400000           0   0.00000       0.00000    
     14734 BUTH     55       BUTH     O1       OD2C1A    1.46540       15.5994           0 -0.713100      0.569800    
     14735 BUTH     55       BUTH     DO1      DRUD     -1.46540      0.400000           0   0.00000       0.00000    
     14736 BUTH     55       BUTH     O2       OD31A     1.58240       15.5990           0 -0.831500      0.749400    
     14737 BUTH     55       BUTH     DO2      DRUD     -1.58240      0.400000           0   0.00000       0.00000    
     14738 BUTH     55       BUTH     H1       HDA3A    0.900000E-01   1.00800           0   0.00000       0.00000    
     14739 BUTH     55       BUTH     H2       HDA3A    0.900000E-01   1.00800           0   0.00000       0.00000    
     14740 BUTH     55       BUTH     H3       HDA3A    0.900000E-01   1.00800           0   0.00000       0.00000    
     14741 BUTH     55       BUTH     H4       HDA2A    0.900000E-01   1.00800           0   0.00000       0.00000    
     14742 BUTH     55       BUTH     H5       HDA2A    0.900000E-01   1.00800           0   0.00000       0.00000    
     14743 BUTH     55       BUTH     H6       HDA2A    0.900000E-01   1.00800           0   0.00000       0.00000    
     14744 BUTH     55       BUTH     H7       HDA2A    0.900000E-01   1.00800           0   0.00000       0.00000    
     14745 BUTH     55       BUTH     H8       HDP1A    0.430000       1.00800           0   0.00000       0.00000    
     14746 BUTH     55       BUTH     H9       DUMH      0.00000       1.00800           0   0.00000       0.00000    
     14747 BUTH     55       BUTH     LPO11    LPDO1   -0.287000       0.00000          -1   0.00000       0.00000    
     14748 BUTH     55       BUTH     LPO12    LPDO1   -0.288000       0.00000          -1   0.00000       0.00000    
     14749 BUTH     55       BUTH     LPO21    LPD     -0.302000       0.00000          -1   0.00000       0.00000    
     14750 BUTH     55       BUTH     LPO22    LPD     -0.303000       0.00000          -1   0.00000       0.00000    
     14751 BUTH     56       BUTH     C1       CD33A     2.05990       11.6110           0  -1.81190       1.18670    
     14752 BUTH     56       BUTH     DC1      DRUD     -2.33590      0.400000           0   0.00000       0.00000    
     14753 BUTH     56       BUTH     C2       CD32A     2.02070       11.6110           0  -1.59660       1.16930    
     14754 BUTH     56       BUTH     DC2      DRUD     -2.19270      0.400000           0   0.00000       0.00000    
     14755 BUTH     56       BUTH     C3       CD32A     1.98270       11.6110           0  -1.59660       1.16930    
     14756 BUTH     56       BUTH     DC3      DRUD     -2.19270      0.400000           0   0.00000       0.00000    
     14757 BUTH     56       BUTH     C4       CD2O3A    2.72690       11.6110           0  -1.26130       1.05430    
     14758 BUTH     56       BUTH     DC4      DRUD     -1.94890      0.400000           0   0.00000       0.00000    
     14759 BUTH     56       BUTH     O1       OD2C1A    1.46540       15.5994           0 -0.713100      0.569800    
     14760 BUTH     56       BUTH     DO1      DRUD     -1.46540      0.400000           0   0.00000       0.00000    
     14761 BUTH     56       BUTH     O2       OD31A     1.58240       15.5990           0 -0.831500      0.749400    
     14762 BUTH     56       BUTH     DO2      DRUD     -1.58240      0.400000           0   0.00000       0.00000    
     14763 BUTH     56       BUTH     H1       HDA3A    0.900000E-01   1.00800           0   0.00000       0.00000    
     14764 BUTH     56       BUTH     H2       HDA3A    0.900000E-01   1.00800           0   0.00000       0.00000    
     14765 BUTH     56       BUTH     H3       HDA3A    0.900000E-01   1.00800           0   0.00000       0.00000    
     14766 BUTH     56       BUTH     H4       HDA2A    0.900000E-01   1.00800           0   0.00000       0.00000    
     14767 BUTH     56       BUTH     H5       HDA2A    0.900000E-01   1.00800           0   0.00000       0.00000    
     14768 BUTH     56       BUTH     H6       HDA2A    0.900000E-01   1.00800           0   0.00000       0.00000    
     14769 BUTH     56       BUTH     H7       HDA2A    0.900000E-01   1.00800           0   0.00000       0.00000    
     14770 BUTH     56       BUTH     H8       HDP1A    0.430000       1.00800           0   0.00000       0.00000    
     14771 BUTH     56       BUTH     H9       DUMH      0.00000       1.00800           0   0.00000       0.00000    
     14772 BUTH     56       BUTH     LPO11    LPDO1   -0.287000       0.00000          -1   0.00000       0.00000    
     14773 BUTH     56       BUTH     LPO12    LPDO1   -0.288000       0.00000          -1   0.00000       0.00000    
     14774 BUTH     56       BUTH     LPO21    LPD     -0.302000       0.00000          -1   0.00000       0.00000    
     14775 BUTH     56       BUTH     LPO22    LPD     -0.303000       0.00000          -1   0.00000       0.00000    
     14776 BUTH     57       BUTH     C1       CD33A     2.05990       11.6110           0  -1.81190       1.18670    
     14777 BUTH     57       BUTH     DC1      DRUD     -2.33590      0.400000           0   0.00000       0.00000    
     14778 BUTH     57       BUTH     C2       CD32A     2.02070       11.6110           0  -1.59660       1.16930    
     14779 BUTH     57       BUTH     DC2      DRUD     -2.19270      0.400000           0   0.00000       0.00000    
     14780 BUTH     57       BUTH     C3       CD32A     1.98270       11.6110           0  -1.59660       1.16930    
     14781 BUTH     57       BUTH     DC3      DRUD     -2.19270      0.400000           0   0.00000       0.00000    
     14782 BUTH     57       BUTH     C4       CD2O3A    2.72690       11.6110           0  -1.26130       1.05430    
     14783 BUTH     57       BUTH     DC4      DRUD     -1.94890      0.400000           0   0.00000       0.00000    
     14784 BUTH     57       BUTH     O1       OD2C1A    1.46540       15.5994           0 -0.713100      0.569800    
     14785 BUTH     57       BUTH     DO1      DRUD     -1.46540      0.400000           0   0.00000       0.00000    
     14786 BUTH     57       BUTH     O2       OD31A     1.58240       15.5990           0 -0.831500      0.749400    
     14787 BUTH     57       BUTH     DO2      DRUD     -1.58240      0.400000           0   0.00000       0.00000    
     14788 BUTH     57       BUTH     H1       HDA3A    0.900000E-01   1.00800           0   0.00000       0.00000    
     14789 BUTH     57       BUTH     H2       HDA3A    0.900000E-01   1.00800           0   0.00000       0.00000    
     14790 BUTH     57       BUTH     H3       HDA3A    0.900000E-01   1.00800           0   0.00000       0.00000    
     14791 BUTH     57       BUTH     H4       HDA2A    0.900000E-01   1.00800           0   0.00000       0.00000    
     14792 BUTH     57       BUTH     H5       HDA2A    0.900000E-01   1.00800           0   0.00000       0.00000    
     14793 BUTH     57       BUTH     H6       HDA2A    0.900000E-01   1.00800           0   0.00000       0.00000    
     14794 BUTH     57       BUTH     H7       HDA2A    0.900000E-01   1.00800           0   0.00000       0.00000    
     14795 BUTH     57       BUTH     H8       HDP1A    0.430000       1.00800           0   0.00000       0.00000    
     14796 BUTH     57       BUTH     H9       DUMH      0.00000       1.00800           0   0.00000       0.00000    
     14797 BUTH     57       BUTH     LPO11    LPDO1   -0.287000       0.00000          -1   0.00000       0.00000    
     14798 BUTH     57       BUTH     LPO12    LPDO1   -0.288000       0.00000          -1   0.00000       0.00000    
     14799 BUTH     57       BUTH     LPO21    LPD     -0.302000       0.00000          -1   0.00000       0.00000    
     14800 BUTH     57       BUTH     LPO22    LPD     -0.303000       0.00000          -1   0.00000       0.00000    
     14801 BUTH     58       BUTH     C1       CD33A     2.05990       11.6110           0  -1.81190       1.18670    
     14802 BUTH     58       BUTH     DC1      DRUD     -2.33590      0.400000           0   0.00000       0.00000    
     14803 BUTH     58       BUTH     C2       CD32A     2.02070       11.6110           0  -1.59660       1.16930    
     14804 BUTH     58       BUTH     DC2      DRUD     -2.19270      0.400000           0   0.00000       0.00000    
     14805 BUTH     58       BUTH     C3       CD32A     1.98270       11.6110           0  -1.59660       1.16930    
     14806 BUTH     58       BUTH     DC3      DRUD     -2.19270      0.400000           0   0.00000       0.00000    
     14807 BUTH     58       BUTH     C4       CD2O3A    2.72690       11.6110           0  -1.26130       1.05430    
     14808 BUTH     58       BUTH     DC4      DRUD     -1.94890      0.400000           0   0.00000       0.00000    
     14809 BUTH     58       BUTH     O1       OD2C1A    1.46540       15.5994           0 -0.713100      0.569800    
     14810 BUTH     58       BUTH     DO1      DRUD     -1.46540      0.400000           0   0.00000       0.00000    
     14811 BUTH     58       BUTH     O2       OD31A     1.58240       15.5990           0 -0.831500      0.749400    
     14812 BUTH     58       BUTH     DO2      DRUD     -1.58240      0.400000           0   0.00000       0.00000    
     14813 BUTH     58       BUTH     H1       HDA3A    0.900000E-01   1.00800           0   0.00000       0.00000    
     14814 BUTH     58       BUTH     H2       HDA3A    0.900000E-01   1.00800           0   0.00000       0.00000    
     14815 BUTH     58       BUTH     H3       HDA3A    0.900000E-01   1.00800           0   0.00000       0.00000    
     14816 BUTH     58       BUTH     H4       HDA2A    0.900000E-01   1.00800           0   0.00000       0.00000    
     14817 BUTH     58       BUTH     H5       HDA2A    0.900000E-01   1.00800           0   0.00000       0.00000    
     14818 BUTH     58       BUTH     H6       HDA2A    0.900000E-01   1.00800           0   0.00000       0.00000    
     14819 BUTH     58       BUTH     H7       HDA2A    0.900000E-01   1.00800           0   0.00000       0.00000    
     14820 BUTH     58       BUTH     H8       HDP1A    0.430000       1.00800           0   0.00000       0.00000    
     14821 BUTH     58       BUTH     H9       DUMH      0.00000       1.00800           0   0.00000       0.00000    
     14822 BUTH     58       BUTH     LPO11    LPDO1   -0.287000       0.00000          -1   0.00000       0.00000    
     14823 BUTH     58       BUTH     LPO12    LPDO1   -0.288000       0.00000          -1   0.00000       0.00000    
     14824 BUTH     58       BUTH     LPO21    LPD     -0.302000       0.00000          -1   0.00000       0.00000    
     14825 BUTH     58       BUTH     LPO22    LPD     -0.303000       0.00000          -1   0.00000       0.00000    
     14826 BUTH     59       BUTH     C1       CD33A     2.05990       11.6110           0  -1.81190       1.18670    
     14827 BUTH     59       BUTH     DC1      DRUD     -2.33590      0.400000           0   0.00000       0.00000    
     14828 BUTH     59       BUTH     C2       CD32A     2.02070       11.6110           0  -1.59660       1.16930    
     14829 BUTH     59       BUTH     DC2      DRUD     -2.19270      0.400000           0   0.00000       0.00000    
     14830 BUTH     59       BUTH     C3       CD32A     1.98270       11.6110           0  -1.59660       1.16930    
     14831 BUTH     59       BUTH     DC3      DRUD     -2.19270      0.400000           0   0.00000       0.00000    
     14832 BUTH     59       BUTH     C4       CD2O3A    2.72690       11.6110           0  -1.26130       1.05430    
     14833 BUTH     59       BUTH     DC4      DRUD     -1.94890      0.400000           0   0.00000       0.00000    
     14834 BUTH     59       BUTH     O1       OD2C1A    1.46540       15.5994           0 -0.713100      0.569800    
     14835 BUTH     59       BUTH     DO1      DRUD     -1.46540      0.400000           0   0.00000       0.00000    
     14836 BUTH     59       BUTH     O2       OD31A     1.58240       15.5990           0 -0.831500      0.749400    
     14837 BUTH     59       BUTH     DO2      DRUD     -1.58240      0.400000           0   0.00000       0.00000    
     14838 BUTH     59       BUTH     H1       HDA3A    0.900000E-01   1.00800           0   0.00000       0.00000    
     14839 BUTH     59       BUTH     H2       HDA3A    0.900000E-01   1.00800           0   0.00000       0.00000    
     14840 BUTH     59       BUTH     H3       HDA3A    0.900000E-01   1.00800           0   0.00000       0.00000    
     14841 BUTH     59       BUTH     H4       HDA2A    0.900000E-01   1.00800           0   0.00000       0.00000    
     14842 BUTH     59       BUTH     H5       HDA2A    0.900000E-01   1.00800           0   0.00000       0.00000    
     14843 BUTH     59       BUTH     H6       HDA2A    0.900000E-01   1.00800           0   0.00000       0.00000    
     14844 BUTH     59       BUTH     H7       HDA2A    0.900000E-01   1.00800           0   0.00000       0.00000    
     14845 BUTH     59       BUTH     H8       HDP1A    0.430000       1.00800           0   0.00000       0.00000    
     14846 BUTH     59       BUTH     H9       DUMH      0.00000       1.00800           0   0.00000       0.00000    
     14847 BUTH     59       BUTH     LPO11    LPDO1   -0.287000       0.00000          -1   0.00000       0.00000    
     14848 BUTH     59       BUTH     LPO12    LPDO1   -0.288000       0.00000          -1   0.00000       0.00000    
     14849 BUTH     59       BUTH     LPO21    LPD     -0.302000       0.00000          -1   0.00000       0.00000    
     14850 BUTH     59       BUTH     LPO22    LPD     -0.303000       0.00000          -1   0.00000       0.00000    
     14851 BUTH     60       BUTH     C1       CD33A     2.05990       11.6110           0  -1.81190       1.18670    
     14852 BUTH     60       BUTH     DC1      DRUD     -2.33590      0.400000           0   0.00000       0.00000    
     14853 BUTH     60       BUTH     C2       CD32A     2.02070       11.6110           0  -1.59660       1.16930    
     14854 BUTH     60       BUTH     DC2      DRUD     -2.19270      0.400000           0   0.00000       0.00000    
     14855 BUTH     60       BUTH     C3       CD32A     1.98270       11.6110           0  -1.59660       1.16930    
     14856 BUTH     60       BUTH     DC3      DRUD     -2.19270      0.400000           0   0.00000       0.00000    
     14857 BUTH     60       BUTH     C4       CD2O3A    2.72690       11.6110           0  -1.26130       1.05430    
     14858 BUTH     60       BUTH     DC4      DRUD     -1.94890      0.400000           0   0.00000       0.00000    
     14859 BUTH     60       BUTH     O1       OD2C1A    1.46540       15.5994           0 -0.713100      0.569800    
     14860 BUTH     60       BUTH     DO1      DRUD     -1.46540      0.400000           0   0.00000       0.00000    
     14861 BUTH     60       BUTH     O2       OD31A     1.58240       15.5990           0 -0.831500      0.749400    
     14862 BUTH     60       BUTH     DO2      DRUD     -1.58240      0.400000           0   0.00000       0.00000    
     14863 BUTH     60       BUTH     H1       HDA3A    0.900000E-01   1.00800           0   0.00000       0.00000    
     14864 BUTH     60       BUTH     H2       HDA3A    0.900000E-01   1.00800           0   0.00000       0.00000    
     14865 BUTH     60       BUTH     H3       HDA3A    0.900000E-01   1.00800           0   0.00000       0.00000    
     14866 BUTH     60       BUTH     H4       HDA2A    0.900000E-01   1.00800           0   0.00000       0.00000    
     14867 BUTH     60       BUTH     H5       HDA2A    0.900000E-01   1.00800           0   0.00000       0.00000    
     14868 BUTH     60       BUTH     H6       HDA2A    0.900000E-01   1.00800           0   0.00000       0.00000    
     14869 BUTH     60       BUTH     H7       HDA2A    0.900000E-01   1.00800           0   0.00000       0.00000    
     14870 BUTH     60       BUTH     H8       HDP1A    0.430000       1.00800           0   0.00000       0.00000    
     14871 BUTH     60       BUTH     H9       DUMH      0.00000       1.00800           0   0.00000       0.00000    
     14872 BUTH     60       BUTH     LPO11    LPDO1   -0.287000       0.00000          -1   0.00000       0.00000    
     14873 BUTH     60       BUTH     LPO12    LPDO1   -0.288000       0.00000          -1   0.00000       0.00000    
     14874 BUTH     60       BUTH     LPO21    LPD     -0.302000       0.00000          -1   0.00000       0.00000    
     14875 BUTH     60       BUTH     LPO22    LPD     -0.303000       0.00000          -1   0.00000       0.00000    
     14876 BUTH     61       BUTH     C1       CD33A     2.05990       11.6110           0  -1.81190       1.18670    
     14877 BUTH     61       BUTH     DC1      DRUD     -2.33590      0.400000           0   0.00000       0.00000    
     14878 BUTH     61       BUTH     C2       CD32A     2.02070       11.6110           0  -1.59660       1.16930    
     14879 BUTH     61       BUTH     DC2      DRUD     -2.19270      0.400000           0   0.00000       0.00000    
     14880 BUTH     61       BUTH     C3       CD32A     1.98270       11.6110           0  -1.59660       1.16930    
     14881 BUTH     61       BUTH     DC3      DRUD     -2.19270      0.400000           0   0.00000       0.00000    
     14882 BUTH     61       BUTH     C4       CD2O3A    2.72690       11.6110           0  -1.26130       1.05430    
     14883 BUTH     61       BUTH     DC4      DRUD     -1.94890      0.400000           0   0.00000       0.00000    
     14884 BUTH     61       BUTH     O1       OD2C1A    1.46540       15.5994           0 -0.713100      0.569800    
     14885 BUTH     61       BUTH     DO1      DRUD     -1.46540      0.400000           0   0.00000       0.00000    
     14886 BUTH     61       BUTH     O2       OD31A     1.58240       15.5990           0 -0.831500      0.749400    
     14887 BUTH     61       BUTH     DO2      DRUD     -1.58240      0.400000           0   0.00000       0.00000    
     14888 BUTH     61       BUTH     H1       HDA3A    0.900000E-01   1.00800           0   0.00000       0.00000    
     14889 BUTH     61       BUTH     H2       HDA3A    0.900000E-01   1.00800           0   0.00000       0.00000    
     14890 BUTH     61       BUTH     H3       HDA3A    0.900000E-01   1.00800           0   0.00000       0.00000    
     14891 BUTH     61       BUTH     H4       HDA2A    0.900000E-01   1.00800           0   0.00000       0.00000    
     14892 BUTH     61       BUTH     H5       HDA2A    0.900000E-01   1.00800           0   0.00000       0.00000    
     14893 BUTH     61       BUTH     H6       HDA2A    0.900000E-01   1.00800           0   0.00000       0.00000    
     14894 BUTH     61       BUTH     H7       HDA2A    0.900000E-01   1.00800           0   0.00000       0.00000    
     14895 BUTH     61       BUTH     H8       HDP1A    0.430000       1.00800           0   0.00000       0.00000    
     14896 BUTH     61       BUTH     H9       DUMH      0.00000       1.00800           0   0.00000       0.00000    
     14897 BUTH     61       BUTH     LPO11    LPDO1   -0.287000       0.00000          -1   0.00000       0.00000    
     14898 BUTH     61       BUTH     LPO12    LPDO1   -0.288000       0.00000          -1   0.00000       0.00000    
     14899 BUTH     61       BUTH     LPO21    LPD     -0.302000       0.00000          -1   0.00000       0.00000    
     14900 BUTH     61       BUTH     LPO22    LPD     -0.303000       0.00000          -1   0.00000       0.00000    
     14901 BUTH     62       BUTH     C1       CD33A     2.05990       11.6110           0  -1.81190       1.18670    
     14902 BUTH     62       BUTH     DC1      DRUD     -2.33590      0.400000           0   0.00000       0.00000    
     14903 BUTH     62       BUTH     C2       CD32A     2.02070       11.6110           0  -1.59660       1.16930    
     14904 BUTH     62       BUTH     DC2      DRUD     -2.19270      0.400000           0   0.00000       0.00000    
     14905 BUTH     62       BUTH     C3       CD32A     1.98270       11.6110           0  -1.59660       1.16930    
     14906 BUTH     62       BUTH     DC3      DRUD     -2.19270      0.400000           0   0.00000       0.00000    
     14907 BUTH     62       BUTH     C4       CD2O3A    2.72690       11.6110           0  -1.26130       1.05430    
     14908 BUTH     62       BUTH     DC4      DRUD     -1.94890      0.400000           0   0.00000       0.00000    
     14909 BUTH     62       BUTH     O1       OD2C1A    1.46540       15.5994           0 -0.713100      0.569800    
     14910 BUTH     62       BUTH     DO1      DRUD     -1.46540      0.400000           0   0.00000       0.00000    
     14911 BUTH     62       BUTH     O2       OD31A     1.58240       15.5990           0 -0.831500      0.749400    
     14912 BUTH     62       BUTH     DO2      DRUD     -1.58240      0.400000           0   0.00000       0.00000    
     14913 BUTH     62       BUTH     H1       HDA3A    0.900000E-01   1.00800           0   0.00000       0.00000    
     14914 BUTH     62       BUTH     H2       HDA3A    0.900000E-01   1.00800           0   0.00000       0.00000    
     14915 BUTH     62       BUTH     H3       HDA3A    0.900000E-01   1.00800           0   0.00000       0.00000    
     14916 BUTH     62       BUTH     H4       HDA2A    0.900000E-01   1.00800           0   0.00000       0.00000    
     14917 BUTH     62       BUTH     H5       HDA2A    0.900000E-01   1.00800           0   0.00000       0.00000    
     14918 BUTH     62       BUTH     H6       HDA2A    0.900000E-01   1.00800           0   0.00000       0.00000    
     14919 BUTH     62       BUTH     H7       HDA2A    0.900000E-01   1.00800           0   0.00000       0.00000    
     14920 BUTH     62       BUTH     H8       HDP1A    0.430000       1.00800           0   0.00000       0.00000    
     14921 BUTH     62       BUTH     H9       DUMH      0.00000       1.00800           0   0.00000       0.00000    
     14922 BUTH     62       BUTH     LPO11    LPDO1   -0.287000       0.00000          -1   0.00000       0.00000    
     14923 BUTH     62       BUTH     LPO12    LPDO1   -0.288000       0.00000          -1   0.00000       0.00000    
     14924 BUTH     62       BUTH     LPO21    LPD     -0.302000       0.00000          -1   0.00000       0.00000    
     14925 BUTH     62       BUTH     LPO22    LPD     -0.303000       0.00000          -1   0.00000       0.00000    
     14926 BUTH     63       BUTH     C1       CD33A     2.05990       11.6110           0  -1.81190       1.18670    
     14927 BUTH     63       BUTH     DC1      DRUD     -2.33590      0.400000           0   0.00000       0.00000    
     14928 BUTH     63       BUTH     C2       CD32A     2.02070       11.6110           0  -1.59660       1.16930    
     14929 BUTH     63       BUTH     DC2      DRUD     -2.19270      0.400000           0   0.00000       0.00000    
     14930 BUTH     63       BUTH     C3       CD32A     1.98270       11.6110           0  -1.59660       1.16930    
     14931 BUTH     63       BUTH     DC3      DRUD     -2.19270      0.400000           0   0.00000       0.00000    
     14932 BUTH     63       BUTH     C4       CD2O3A    2.72690       11.6110           0  -1.26130       1.05430    
     14933 BUTH     63       BUTH     DC4      DRUD     -1.94890      0.400000           0   0.00000       0.00000    
     14934 BUTH     63       BUTH     O1       OD2C1A    1.46540       15.5994           0 -0.713100      0.569800    
     14935 BUTH     63       BUTH     DO1      DRUD     -1.46540      0.400000           0   0.00000       0.00000    
     14936 BUTH     63       BUTH     O2       OD31A     1.58240       15.5990           0 -0.831500      0.749400    
     14937 BUTH     63       BUTH     DO2      DRUD     -1.58240      0.400000           0   0.00000       0.00000    
     14938 BUTH     63       BUTH     H1       HDA3A    0.900000E-01   1.00800           0   0.00000       0.00000    
     14939 BUTH     63       BUTH     H2       HDA3A    0.900000E-01   1.00800           0   0.00000       0.00000    
     14940 BUTH     63       BUTH     H3       HDA3A    0.900000E-01   1.00800           0   0.00000       0.00000    
     14941 BUTH     63       BUTH     H4       HDA2A    0.900000E-01   1.00800           0   0.00000       0.00000    
     14942 BUTH     63       BUTH     H5       HDA2A    0.900000E-01   1.00800           0   0.00000       0.00000    
     14943 BUTH     63       BUTH     H6       HDA2A    0.900000E-01   1.00800           0   0.00000       0.00000    
     14944 BUTH     63       BUTH     H7       HDA2A    0.900000E-01   1.00800           0   0.00000       0.00000    
     14945 BUTH     63       BUTH     H8       HDP1A    0.430000       1.00800           0   0.00000       0.00000    
     14946 BUTH     63       BUTH     H9       DUMH      0.00000       1.00800           0   0.00000       0.00000    
     14947 BUTH     63       BUTH     LPO11    LPDO1   -0.287000       0.00000          -1   0.00000       0.00000    
     14948 BUTH     63       BUTH     LPO12    LPDO1   -0.288000       0.00000          -1   0.00000       0.00000    
     14949 BUTH     63       BUTH     LPO21    LPD     -0.302000       0.00000          -1   0.00000       0.00000    
     14950 BUTH     63       BUTH     LPO22    LPD     -0.303000       0.00000          -1   0.00000       0.00000    
     14951 BUTH     64       BUTH     C1       CD33A     2.05990       11.6110           0  -1.81190       1.18670    
     14952 BUTH     64       BUTH     DC1      DRUD     -2.33590      0.400000           0   0.00000       0.00000    
     14953 BUTH     64       BUTH     C2       CD32A     2.02070       11.6110           0  -1.59660       1.16930    
     14954 BUTH     64       BUTH     DC2      DRUD     -2.19270      0.400000           0   0.00000       0.00000    
     14955 BUTH     64       BUTH     C3       CD32A     1.98270       11.6110           0  -1.59660       1.16930    
     14956 BUTH     64       BUTH     DC3      DRUD     -2.19270      0.400000           0   0.00000       0.00000    
     14957 BUTH     64       BUTH     C4       CD2O3A    2.72690       11.6110           0  -1.26130       1.05430    
     14958 BUTH     64       BUTH     DC4      DRUD     -1.94890      0.400000           0   0.00000       0.00000    
     14959 BUTH     64       BUTH     O1       OD2C1A    1.46540       15.5994           0 -0.713100      0.569800    
     14960 BUTH     64       BUTH     DO1      DRUD     -1.46540      0.400000           0   0.00000       0.00000    
     14961 BUTH     64       BUTH     O2       OD31A     1.58240       15.5990           0 -0.831500      0.749400    
     14962 BUTH     64       BUTH     DO2      DRUD     -1.58240      0.400000           0   0.00000       0.00000    
     14963 BUTH     64       BUTH     H1       HDA3A    0.900000E-01   1.00800           0   0.00000       0.00000    
     14964 BUTH     64       BUTH     H2       HDA3A    0.900000E-01   1.00800           0   0.00000       0.00000    
     14965 BUTH     64       BUTH     H3       HDA3A    0.900000E-01   1.00800           0   0.00000       0.00000    
     14966 BUTH     64       BUTH     H4       HDA2A    0.900000E-01   1.00800           0   0.00000       0.00000    
     14967 BUTH     64       BUTH     H5       HDA2A    0.900000E-01   1.00800           0   0.00000       0.00000    
     14968 BUTH     64       BUTH     H6       HDA2A    0.900000E-01   1.00800           0   0.00000       0.00000    
     14969 BUTH     64       BUTH     H7       HDA2A    0.900000E-01   1.00800           0   0.00000       0.00000    
     14970 BUTH     64       BUTH     H8       HDP1A    0.430000       1.00800           0   0.00000       0.00000    
     14971 BUTH     64       BUTH     H9       DUMH      0.00000       1.00800           0   0.00000       0.00000    
     14972 BUTH     64       BUTH     LPO11    LPDO1   -0.287000       0.00000          -1   0.00000       0.00000    
     14973 BUTH     64       BUTH     LPO12    LPDO1   -0.288000       0.00000          -1   0.00000       0.00000    
     14974 BUTH     64       BUTH     LPO21    LPD     -0.302000       0.00000          -1   0.00000       0.00000    
     14975 BUTH     64       BUTH     LPO22    LPD     -0.303000       0.00000          -1   0.00000       0.00000    
     14976 BUTH     65       BUTH     C1       CD33A     2.05990       11.6110           0  -1.81190       1.18670    
     14977 BUTH     65       BUTH     DC1      DRUD     -2.33590      0.400000           0   0.00000       0.00000    
     14978 BUTH     65       BUTH     C2       CD32A     2.02070       11.6110           0  -1.59660       1.16930    
     14979 BUTH     65       BUTH     DC2      DRUD     -2.19270      0.400000           0   0.00000       0.00000    
     14980 BUTH     65       BUTH     C3       CD32A     1.98270       11.6110           0  -1.59660       1.16930    
     14981 BUTH     65       BUTH     DC3      DRUD     -2.19270      0.400000           0   0.00000       0.00000    
     14982 BUTH     65       BUTH     C4       CD2O3A    2.72690       11.6110           0  -1.26130       1.05430    
     14983 BUTH     65       BUTH     DC4      DRUD     -1.94890      0.400000           0   0.00000       0.00000    
     14984 BUTH     65       BUTH     O1       OD2C1A    1.46540       15.5994           0 -0.713100      0.569800    
     14985 BUTH     65       BUTH     DO1      DRUD     -1.46540      0.400000           0   0.00000       0.00000    
     14986 BUTH     65       BUTH     O2       OD31A     1.58240       15.5990           0 -0.831500      0.749400    
     14987 BUTH     65       BUTH     DO2      DRUD     -1.58240      0.400000           0   0.00000       0.00000    
     14988 BUTH     65       BUTH     H1       HDA3A    0.900000E-01   1.00800           0   0.00000       0.00000    
     14989 BUTH     65       BUTH     H2       HDA3A    0.900000E-01   1.00800           0   0.00000       0.00000    
     14990 BUTH     65       BUTH     H3       HDA3A    0.900000E-01   1.00800           0   0.00000       0.00000    
     14991 BUTH     65       BUTH     H4       HDA2A    0.900000E-01   1.00800           0   0.00000       0.00000    
     14992 BUTH     65       BUTH     H5       HDA2A    0.900000E-01   1.00800           0   0.00000       0.00000    
     14993 BUTH     65       BUTH     H6       HDA2A    0.900000E-01   1.00800           0   0.00000       0.00000    
     14994 BUTH     65       BUTH     H7       HDA2A    0.900000E-01   1.00800           0   0.00000       0.00000    
     14995 BUTH     65       BUTH     H8       HDP1A    0.430000       1.00800           0   0.00000       0.00000    
     14996 BUTH     65       BUTH     H9       DUMH      0.00000       1.00800           0   0.00000       0.00000    
     14997 BUTH     65       BUTH     LPO11    LPDO1   -0.287000       0.00000          -1   0.00000       0.00000    
     14998 BUTH     65       BUTH     LPO12    LPDO1   -0.288000       0.00000          -1   0.00000       0.00000    
     14999 BUTH     65       BUTH     LPO21    LPD     -0.302000       0.00000          -1   0.00000       0.00000    
     15000 BUTH     65       BUTH     LPO22    LPD     -0.303000       0.00000          -1   0.00000       0.00000    
     15001 BUTH     66       BUTH     C1       CD33A     2.05990       11.6110           0  -1.81190       1.18670    
     15002 BUTH     66       BUTH     DC1      DRUD     -2.33590      0.400000           0   0.00000       0.00000    
     15003 BUTH     66       BUTH     C2       CD32A     2.02070       11.6110           0  -1.59660       1.16930    
     15004 BUTH     66       BUTH     DC2      DRUD     -2.19270      0.400000           0   0.00000       0.00000    
     15005 BUTH     66       BUTH     C3       CD32A     1.98270       11.6110           0  -1.59660       1.16930    
     15006 BUTH     66       BUTH     DC3      DRUD     -2.19270      0.400000           0   0.00000       0.00000    
     15007 BUTH     66       BUTH     C4       CD2O3A    2.72690       11.6110           0  -1.26130       1.05430    
     15008 BUTH     66       BUTH     DC4      DRUD     -1.94890      0.400000           0   0.00000       0.00000    
     15009 BUTH     66       BUTH     O1       OD2C1A    1.46540       15.5994           0 -0.713100      0.569800    
     15010 BUTH     66       BUTH     DO1      DRUD     -1.46540      0.400000           0   0.00000       0.00000    
     15011 BUTH     66       BUTH     O2       OD31A     1.58240       15.5990           0 -0.831500      0.749400    
     15012 BUTH     66       BUTH     DO2      DRUD     -1.58240      0.400000           0   0.00000       0.00000    
     15013 BUTH     66       BUTH     H1       HDA3A    0.900000E-01   1.00800           0   0.00000       0.00000    
     15014 BUTH     66       BUTH     H2       HDA3A    0.900000E-01   1.00800           0   0.00000       0.00000    
     15015 BUTH     66       BUTH     H3       HDA3A    0.900000E-01   1.00800           0   0.00000       0.00000    
     15016 BUTH     66       BUTH     H4       HDA2A    0.900000E-01   1.00800           0   0.00000       0.00000    
     15017 BUTH     66       BUTH     H5       HDA2A    0.900000E-01   1.00800           0   0.00000       0.00000    
     15018 BUTH     66       BUTH     H6       HDA2A    0.900000E-01   1.00800           0   0.00000       0.00000    
     15019 BUTH     66       BUTH     H7       HDA2A    0.900000E-01   1.00800           0   0.00000       0.00000    
     15020 BUTH     66       BUTH     H8       HDP1A    0.430000       1.00800           0   0.00000       0.00000    
     15021 BUTH     66       BUTH     H9       DUMH      0.00000       1.00800           0   0.00000       0.00000    
     15022 BUTH     66       BUTH     LPO11    LPDO1   -0.287000       0.00000          -1   0.00000       0.00000    
     15023 BUTH     66       BUTH     LPO12    LPDO1   -0.288000       0.00000          -1   0.00000       0.00000    
     15024 BUTH     66       BUTH     LPO21    LPD     -0.302000       0.00000          -1   0.00000       0.00000    
     15025 BUTH     66       BUTH     LPO22    LPD     -0.303000       0.00000          -1   0.00000       0.00000    
     15026 BUTH     67       BUTH     C1       CD33A     2.05990       11.6110           0  -1.81190       1.18670    
     15027 BUTH     67       BUTH     DC1      DRUD     -2.33590      0.400000           0   0.00000       0.00000    
     15028 BUTH     67       BUTH     C2       CD32A     2.02070       11.6110           0  -1.59660       1.16930    
     15029 BUTH     67       BUTH     DC2      DRUD     -2.19270      0.400000           0   0.00000       0.00000    
     15030 BUTH     67       BUTH     C3       CD32A     1.98270       11.6110           0  -1.59660       1.16930    
     15031 BUTH     67       BUTH     DC3      DRUD     -2.19270      0.400000           0   0.00000       0.00000    
     15032 BUTH     67       BUTH     C4       CD2O3A    2.72690       11.6110           0  -1.26130       1.05430    
     15033 BUTH     67       BUTH     DC4      DRUD     -1.94890      0.400000           0   0.00000       0.00000    
     15034 BUTH     67       BUTH     O1       OD2C1A    1.46540       15.5994           0 -0.713100      0.569800    
     15035 BUTH     67       BUTH     DO1      DRUD     -1.46540      0.400000           0   0.00000       0.00000    
     15036 BUTH     67       BUTH     O2       OD31A     1.58240       15.5990           0 -0.831500      0.749400    
     15037 BUTH     67       BUTH     DO2      DRUD     -1.58240      0.400000           0   0.00000       0.00000    
     15038 BUTH     67       BUTH     H1       HDA3A    0.900000E-01   1.00800           0   0.00000       0.00000    
     15039 BUTH     67       BUTH     H2       HDA3A    0.900000E-01   1.00800           0   0.00000       0.00000    
     15040 BUTH     67       BUTH     H3       HDA3A    0.900000E-01   1.00800           0   0.00000       0.00000    
     15041 BUTH     67       BUTH     H4       HDA2A    0.900000E-01   1.00800           0   0.00000       0.00000    
     15042 BUTH     67       BUTH     H5       HDA2A    0.900000E-01   1.00800           0   0.00000       0.00000    
     15043 BUTH     67       BUTH     H6       HDA2A    0.900000E-01   1.00800           0   0.00000       0.00000    
     15044 BUTH     67       BUTH     H7       HDA2A    0.900000E-01   1.00800           0   0.00000       0.00000    
     15045 BUTH     67       BUTH     H8       HDP1A    0.430000       1.00800           0   0.00000       0.00000    
     15046 BUTH     67       BUTH     H9       DUMH      0.00000       1.00800           0   0.00000       0.00000    
     15047 BUTH     67       BUTH     LPO11    LPDO1   -0.287000       0.00000          -1   0.00000       0.00000    
     15048 BUTH     67       BUTH     LPO12    LPDO1   -0.288000       0.00000          -1   0.00000       0.00000    
     15049 BUTH     67       BUTH     LPO21    LPD     -0.302000       0.00000          -1   0.00000       0.00000    
     15050 BUTH     67       BUTH     LPO22    LPD     -0.303000       0.00000          -1   0.00000       0.00000    
     15051 BUTH     68       BUTH     C1       CD33A     2.05990       11.6110           0  -1.81190       1.18670    
     15052 BUTH     68       BUTH     DC1      DRUD     -2.33590      0.400000           0   0.00000       0.00000    
     15053 BUTH     68       BUTH     C2       CD32A     2.02070       11.6110           0  -1.59660       1.16930    
     15054 BUTH     68       BUTH     DC2      DRUD     -2.19270      0.400000           0   0.00000       0.00000    
     15055 BUTH     68       BUTH     C3       CD32A     1.98270       11.6110           0  -1.59660       1.16930    
     15056 BUTH     68       BUTH     DC3      DRUD     -2.19270      0.400000           0   0.00000       0.00000    
     15057 BUTH     68       BUTH     C4       CD2O3A    2.72690       11.6110           0  -1.26130       1.05430    
     15058 BUTH     68       BUTH     DC4      DRUD     -1.94890      0.400000           0   0.00000       0.00000    
     15059 BUTH     68       BUTH     O1       OD2C1A    1.46540       15.5994           0 -0.713100      0.569800    
     15060 BUTH     68       BUTH     DO1      DRUD     -1.46540      0.400000           0   0.00000       0.00000    
     15061 BUTH     68       BUTH     O2       OD31A     1.58240       15.5990           0 -0.831500      0.749400    
     15062 BUTH     68       BUTH     DO2      DRUD     -1.58240      0.400000           0   0.00000       0.00000    
     15063 BUTH     68       BUTH     H1       HDA3A    0.900000E-01   1.00800           0   0.00000       0.00000    
     15064 BUTH     68       BUTH     H2       HDA3A    0.900000E-01   1.00800           0   0.00000       0.00000    
     15065 BUTH     68       BUTH     H3       HDA3A    0.900000E-01   1.00800           0   0.00000       0.00000    
     15066 BUTH     68       BUTH     H4       HDA2A    0.900000E-01   1.00800           0   0.00000       0.00000    
     15067 BUTH     68       BUTH     H5       HDA2A    0.900000E-01   1.00800           0   0.00000       0.00000    
     15068 BUTH     68       BUTH     H6       HDA2A    0.900000E-01   1.00800           0   0.00000       0.00000    
     15069 BUTH     68       BUTH     H7       HDA2A    0.900000E-01   1.00800           0   0.00000       0.00000    
     15070 BUTH     68       BUTH     H8       HDP1A    0.430000       1.00800           0   0.00000       0.00000    
     15071 BUTH     68       BUTH     H9       DUMH      0.00000       1.00800           0   0.00000       0.00000    
     15072 BUTH     68       BUTH     LPO11    LPDO1   -0.287000       0.00000          -1   0.00000       0.00000    
     15073 BUTH     68       BUTH     LPO12    LPDO1   -0.288000       0.00000          -1   0.00000       0.00000    
     15074 BUTH     68       BUTH     LPO21    LPD     -0.302000       0.00000          -1   0.00000       0.00000    
     15075 BUTH     68       BUTH     LPO22    LPD     -0.303000       0.00000          -1   0.00000       0.00000    
     15076 BUTH     69       BUTH     C1       CD33A     2.05990       11.6110           0  -1.81190       1.18670    
     15077 BUTH     69       BUTH     DC1      DRUD     -2.33590      0.400000           0   0.00000       0.00000    
     15078 BUTH     69       BUTH     C2       CD32A     2.02070       11.6110           0  -1.59660       1.16930    
     15079 BUTH     69       BUTH     DC2      DRUD     -2.19270      0.400000           0   0.00000       0.00000    
     15080 BUTH     69       BUTH     C3       CD32A     1.98270       11.6110           0  -1.59660       1.16930    
     15081 BUTH     69       BUTH     DC3      DRUD     -2.19270      0.400000           0   0.00000       0.00000    
     15082 BUTH     69       BUTH     C4       CD2O3A    2.72690       11.6110           0  -1.26130       1.05430    
     15083 BUTH     69       BUTH     DC4      DRUD     -1.94890      0.400000           0   0.00000       0.00000    
     15084 BUTH     69       BUTH     O1       OD2C1A    1.46540       15.5994           0 -0.713100      0.569800    
     15085 BUTH     69       BUTH     DO1      DRUD     -1.46540      0.400000           0   0.00000       0.00000    
     15086 BUTH     69       BUTH     O2       OD31A     1.58240       15.5990           0 -0.831500      0.749400    
     15087 BUTH     69       BUTH     DO2      DRUD     -1.58240      0.400000           0   0.00000       0.00000    
     15088 BUTH     69       BUTH     H1       HDA3A    0.900000E-01   1.00800           0   0.00000       0.00000    
     15089 BUTH     69       BUTH     H2       HDA3A    0.900000E-01   1.00800           0   0.00000       0.00000    
     15090 BUTH     69       BUTH     H3       HDA3A    0.900000E-01   1.00800           0   0.00000       0.00000    
     15091 BUTH     69       BUTH     H4       HDA2A    0.900000E-01   1.00800           0   0.00000       0.00000    
     15092 BUTH     69       BUTH     H5       HDA2A    0.900000E-01   1.00800           0   0.00000       0.00000    
     15093 BUTH     69       BUTH     H6       HDA2A    0.900000E-01   1.00800           0   0.00000       0.00000    
     15094 BUTH     69       BUTH     H7       HDA2A    0.900000E-01   1.00800           0   0.00000       0.00000    
     15095 BUTH     69       BUTH     H8       HDP1A    0.430000       1.00800           0   0.00000       0.00000    
     15096 BUTH     69       BUTH     H9       DUMH      0.00000       1.00800           0   0.00000       0.00000    
     15097 BUTH     69       BUTH     LPO11    LPDO1   -0.287000       0.00000          -1   0.00000       0.00000    
     15098 BUTH     69       BUTH     LPO12    LPDO1   -0.288000       0.00000          -1   0.00000       0.00000    
     15099 BUTH     69       BUTH     LPO21    LPD     -0.302000       0.00000          -1   0.00000       0.00000    
     15100 BUTH     69       BUTH     LPO22    LPD     -0.303000       0.00000          -1   0.00000       0.00000    
     15101 BUTH     70       BUTH     C1       CD33A     2.05990       11.6110           0  -1.81190       1.18670    
     15102 BUTH     70       BUTH     DC1      DRUD     -2.33590      0.400000           0   0.00000       0.00000    
     15103 BUTH     70       BUTH     C2       CD32A     2.02070       11.6110           0  -1.59660       1.16930    
     15104 BUTH     70       BUTH     DC2      DRUD     -2.19270      0.400000           0   0.00000       0.00000    
     15105 BUTH     70       BUTH     C3       CD32A     1.98270       11.6110           0  -1.59660       1.16930    
     15106 BUTH     70       BUTH     DC3      DRUD     -2.19270      0.400000           0   0.00000       0.00000    
     15107 BUTH     70       BUTH     C4       CD2O3A    2.72690       11.6110           0  -1.26130       1.05430    
     15108 BUTH     70       BUTH     DC4      DRUD     -1.94890      0.400000           0   0.00000       0.00000    
     15109 BUTH     70       BUTH     O1       OD2C1A    1.46540       15.5994           0 -0.713100      0.569800    
     15110 BUTH     70       BUTH     DO1      DRUD     -1.46540      0.400000           0   0.00000       0.00000    
     15111 BUTH     70       BUTH     O2       OD31A     1.58240       15.5990           0 -0.831500      0.749400    
     15112 BUTH     70       BUTH     DO2      DRUD     -1.58240      0.400000           0   0.00000       0.00000    
     15113 BUTH     70       BUTH     H1       HDA3A    0.900000E-01   1.00800           0   0.00000       0.00000    
     15114 BUTH     70       BUTH     H2       HDA3A    0.900000E-01   1.00800           0   0.00000       0.00000    
     15115 BUTH     70       BUTH     H3       HDA3A    0.900000E-01   1.00800           0   0.00000       0.00000    
     15116 BUTH     70       BUTH     H4       HDA2A    0.900000E-01   1.00800           0   0.00000       0.00000    
     15117 BUTH     70       BUTH     H5       HDA2A    0.900000E-01   1.00800           0   0.00000       0.00000    
     15118 BUTH     70       BUTH     H6       HDA2A    0.900000E-01   1.00800           0   0.00000       0.00000    
     15119 BUTH     70       BUTH     H7       HDA2A    0.900000E-01   1.00800           0   0.00000       0.00000    
     15120 BUTH     70       BUTH     H8       HDP1A    0.430000       1.00800           0   0.00000       0.00000    
     15121 BUTH     70       BUTH     H9       DUMH      0.00000       1.00800           0   0.00000       0.00000    
     15122 BUTH     70       BUTH     LPO11    LPDO1   -0.287000       0.00000          -1   0.00000       0.00000    
     15123 BUTH     70       BUTH     LPO12    LPDO1   -0.288000       0.00000          -1   0.00000       0.00000    
     15124 BUTH     70       BUTH     LPO21    LPD     -0.302000       0.00000          -1   0.00000       0.00000    
     15125 BUTH     70       BUTH     LPO22    LPD     -0.303000       0.00000          -1   0.00000       0.00000    
     15126 BUTH     71       BUTH     C1       CD33A     2.05990       11.6110           0  -1.81190       1.18670    
     15127 BUTH     71       BUTH     DC1      DRUD     -2.33590      0.400000           0   0.00000       0.00000    
     15128 BUTH     71       BUTH     C2       CD32A     2.02070       11.6110           0  -1.59660       1.16930    
     15129 BUTH     71       BUTH     DC2      DRUD     -2.19270      0.400000           0   0.00000       0.00000    
     15130 BUTH     71       BUTH     C3       CD32A     1.98270       11.6110           0  -1.59660       1.16930    
     15131 BUTH     71       BUTH     DC3      DRUD     -2.19270      0.400000           0   0.00000       0.00000    
     15132 BUTH     71       BUTH     C4       CD2O3A    2.72690       11.6110           0  -1.26130       1.05430    
     15133 BUTH     71       BUTH     DC4      DRUD     -1.94890      0.400000           0   0.00000       0.00000    
     15134 BUTH     71       BUTH     O1       OD2C1A    1.46540       15.5994           0 -0.713100      0.569800    
     15135 BUTH     71       BUTH     DO1      DRUD     -1.46540      0.400000           0   0.00000       0.00000    
     15136 BUTH     71       BUTH     O2       OD31A     1.58240       15.5990           0 -0.831500      0.749400    
     15137 BUTH     71       BUTH     DO2      DRUD     -1.58240      0.400000           0   0.00000       0.00000    
     15138 BUTH     71       BUTH     H1       HDA3A    0.900000E-01   1.00800           0   0.00000       0.00000    
     15139 BUTH     71       BUTH     H2       HDA3A    0.900000E-01   1.00800           0   0.00000       0.00000    
     15140 BUTH     71       BUTH     H3       HDA3A    0.900000E-01   1.00800           0   0.00000       0.00000    
     15141 BUTH     71       BUTH     H4       HDA2A    0.900000E-01   1.00800           0   0.00000       0.00000    
     15142 BUTH     71       BUTH     H5       HDA2A    0.900000E-01   1.00800           0   0.00000       0.00000    
     15143 BUTH     71       BUTH     H6       HDA2A    0.900000E-01   1.00800           0   0.00000       0.00000    
     15144 BUTH     71       BUTH     H7       HDA2A    0.900000E-01   1.00800           0   0.00000       0.00000    
     15145 BUTH     71       BUTH     H8       HDP1A    0.430000       1.00800           0   0.00000       0.00000    
     15146 BUTH     71       BUTH     H9       DUMH      0.00000       1.00800           0   0.00000       0.00000    
     15147 BUTH     71       BUTH     LPO11    LPDO1   -0.287000       0.00000          -1   0.00000       0.00000    
     15148 BUTH     71       BUTH     LPO12    LPDO1   -0.288000       0.00000          -1   0.00000       0.00000    
     15149 BUTH     71       BUTH     LPO21    LPD     -0.302000       0.00000          -1   0.00000       0.00000    
     15150 BUTH     71       BUTH     LPO22    LPD     -0.303000       0.00000          -1   0.00000       0.00000    
     15151 BUTH     72       BUTH     C1       CD33A     2.05990       11.6110           0  -1.81190       1.18670    
     15152 BUTH     72       BUTH     DC1      DRUD     -2.33590      0.400000           0   0.00000       0.00000    
     15153 BUTH     72       BUTH     C2       CD32A     2.02070       11.6110           0  -1.59660       1.16930    
     15154 BUTH     72       BUTH     DC2      DRUD     -2.19270      0.400000           0   0.00000       0.00000    
     15155 BUTH     72       BUTH     C3       CD32A     1.98270       11.6110           0  -1.59660       1.16930    
     15156 BUTH     72       BUTH     DC3      DRUD     -2.19270      0.400000           0   0.00000       0.00000    
     15157 BUTH     72       BUTH     C4       CD2O3A    2.72690       11.6110           0  -1.26130       1.05430    
     15158 BUTH     72       BUTH     DC4      DRUD     -1.94890      0.400000           0   0.00000       0.00000    
     15159 BUTH     72       BUTH     O1       OD2C1A    1.46540       15.5994           0 -0.713100      0.569800    
     15160 BUTH     72       BUTH     DO1      DRUD     -1.46540      0.400000           0   0.00000       0.00000    
     15161 BUTH     72       BUTH     O2       OD31A     1.58240       15.5990           0 -0.831500      0.749400    
     15162 BUTH     72       BUTH     DO2      DRUD     -1.58240      0.400000           0   0.00000       0.00000    
     15163 BUTH     72       BUTH     H1       HDA3A    0.900000E-01   1.00800           0   0.00000       0.00000    
     15164 BUTH     72       BUTH     H2       HDA3A    0.900000E-01   1.00800           0   0.00000       0.00000    
     15165 BUTH     72       BUTH     H3       HDA3A    0.900000E-01   1.00800           0   0.00000       0.00000    
     15166 BUTH     72       BUTH     H4       HDA2A    0.900000E-01   1.00800           0   0.00000       0.00000    
     15167 BUTH     72       BUTH     H5       HDA2A    0.900000E-01   1.00800           0   0.00000       0.00000    
     15168 BUTH     72       BUTH     H6       HDA2A    0.900000E-01   1.00800           0   0.00000       0.00000    
     15169 BUTH     72       BUTH     H7       HDA2A    0.900000E-01   1.00800           0   0.00000       0.00000    
     15170 BUTH     72       BUTH     H8       HDP1A    0.430000       1.00800           0   0.00000       0.00000    
     15171 BUTH     72       BUTH     H9       DUMH      0.00000       1.00800           0   0.00000       0.00000    
     15172 BUTH     72       BUTH     LPO11    LPDO1   -0.287000       0.00000          -1   0.00000       0.00000    
     15173 BUTH     72       BUTH     LPO12    LPDO1   -0.288000       0.00000          -1   0.00000       0.00000    
     15174 BUTH     72       BUTH     LPO21    LPD     -0.302000       0.00000          -1   0.00000       0.00000    
     15175 BUTH     72       BUTH     LPO22    LPD     -0.303000       0.00000          -1   0.00000       0.00000    
     15176 BUTH     73       BUTH     C1       CD33A     2.05990       11.6110           0  -1.81190       1.18670    
     15177 BUTH     73       BUTH     DC1      DRUD     -2.33590      0.400000           0   0.00000       0.00000    
     15178 BUTH     73       BUTH     C2       CD32A     2.02070       11.6110           0  -1.59660       1.16930    
     15179 BUTH     73       BUTH     DC2      DRUD     -2.19270      0.400000           0   0.00000       0.00000    
     15180 BUTH     73       BUTH     C3       CD32A     1.98270       11.6110           0  -1.59660       1.16930    
     15181 BUTH     73       BUTH     DC3      DRUD     -2.19270      0.400000           0   0.00000       0.00000    
     15182 BUTH     73       BUTH     C4       CD2O3A    2.72690       11.6110           0  -1.26130       1.05430    
     15183 BUTH     73       BUTH     DC4      DRUD     -1.94890      0.400000           0   0.00000       0.00000    
     15184 BUTH     73       BUTH     O1       OD2C1A    1.46540       15.5994           0 -0.713100      0.569800    
     15185 BUTH     73       BUTH     DO1      DRUD     -1.46540      0.400000           0   0.00000       0.00000    
     15186 BUTH     73       BUTH     O2       OD31A     1.58240       15.5990           0 -0.831500      0.749400    
     15187 BUTH     73       BUTH     DO2      DRUD     -1.58240      0.400000           0   0.00000       0.00000    
     15188 BUTH     73       BUTH     H1       HDA3A    0.900000E-01   1.00800           0   0.00000       0.00000    
     15189 BUTH     73       BUTH     H2       HDA3A    0.900000E-01   1.00800           0   0.00000       0.00000    
     15190 BUTH     73       BUTH     H3       HDA3A    0.900000E-01   1.00800           0   0.00000       0.00000    
     15191 BUTH     73       BUTH     H4       HDA2A    0.900000E-01   1.00800           0   0.00000       0.00000    
     15192 BUTH     73       BUTH     H5       HDA2A    0.900000E-01   1.00800           0   0.00000       0.00000    
     15193 BUTH     73       BUTH     H6       HDA2A    0.900000E-01   1.00800           0   0.00000       0.00000    
     15194 BUTH     73       BUTH     H7       HDA2A    0.900000E-01   1.00800           0   0.00000       0.00000    
     15195 BUTH     73       BUTH     H8       HDP1A    0.430000       1.00800           0   0.00000       0.00000    
     15196 BUTH     73       BUTH     H9       DUMH      0.00000       1.00800           0   0.00000       0.00000    
     15197 BUTH     73       BUTH     LPO11    LPDO1   -0.287000       0.00000          -1   0.00000       0.00000    
     15198 BUTH     73       BUTH     LPO12    LPDO1   -0.288000       0.00000          -1   0.00000       0.00000    
     15199 BUTH     73       BUTH     LPO21    LPD     -0.302000       0.00000          -1   0.00000       0.00000    
     15200 BUTH     73       BUTH     LPO22    LPD     -0.303000       0.00000          -1   0.00000       0.00000    
     15201 BUTH     74       BUTH     C1       CD33A     2.05990       11.6110           0  -1.81190       1.18670    
     15202 BUTH     74       BUTH     DC1      DRUD     -2.33590      0.400000           0   0.00000       0.00000    
     15203 BUTH     74       BUTH     C2       CD32A     2.02070       11.6110           0  -1.59660       1.16930    
     15204 BUTH     74       BUTH     DC2      DRUD     -2.19270      0.400000           0   0.00000       0.00000    
     15205 BUTH     74       BUTH     C3       CD32A     1.98270       11.6110           0  -1.59660       1.16930    
     15206 BUTH     74       BUTH     DC3      DRUD     -2.19270      0.400000           0   0.00000       0.00000    
     15207 BUTH     74       BUTH     C4       CD2O3A    2.72690       11.6110           0  -1.26130       1.05430    
     15208 BUTH     74       BUTH     DC4      DRUD     -1.94890      0.400000           0   0.00000       0.00000    
     15209 BUTH     74       BUTH     O1       OD2C1A    1.46540       15.5994           0 -0.713100      0.569800    
     15210 BUTH     74       BUTH     DO1      DRUD     -1.46540      0.400000           0   0.00000       0.00000    
     15211 BUTH     74       BUTH     O2       OD31A     1.58240       15.5990           0 -0.831500      0.749400    
     15212 BUTH     74       BUTH     DO2      DRUD     -1.58240      0.400000           0   0.00000       0.00000    
     15213 BUTH     74       BUTH     H1       HDA3A    0.900000E-01   1.00800           0   0.00000       0.00000    
     15214 BUTH     74       BUTH     H2       HDA3A    0.900000E-01   1.00800           0   0.00000       0.00000    
     15215 BUTH     74       BUTH     H3       HDA3A    0.900000E-01   1.00800           0   0.00000       0.00000    
     15216 BUTH     74       BUTH     H4       HDA2A    0.900000E-01   1.00800           0   0.00000       0.00000    
     15217 BUTH     74       BUTH     H5       HDA2A    0.900000E-01   1.00800           0   0.00000       0.00000    
     15218 BUTH     74       BUTH     H6       HDA2A    0.900000E-01   1.00800           0   0.00000       0.00000    
     15219 BUTH     74       BUTH     H7       HDA2A    0.900000E-01   1.00800           0   0.00000       0.00000    
     15220 BUTH     74       BUTH     H8       HDP1A    0.430000       1.00800           0   0.00000       0.00000    
     15221 BUTH     74       BUTH     H9       DUMH      0.00000       1.00800           0   0.00000       0.00000    
     15222 BUTH     74       BUTH     LPO11    LPDO1   -0.287000       0.00000          -1   0.00000       0.00000    
     15223 BUTH     74       BUTH     LPO12    LPDO1   -0.288000       0.00000          -1   0.00000       0.00000    
     15224 BUTH     74       BUTH     LPO21    LPD     -0.302000       0.00000          -1   0.00000       0.00000    
     15225 BUTH     74       BUTH     LPO22    LPD     -0.303000       0.00000          -1   0.00000       0.00000    
     15226 BUTH     75       BUTH     C1       CD33A     2.05990       11.6110           0  -1.81190       1.18670    
     15227 BUTH     75       BUTH     DC1      DRUD     -2.33590      0.400000           0   0.00000       0.00000    
     15228 BUTH     75       BUTH     C2       CD32A     2.02070       11.6110           0  -1.59660       1.16930    
     15229 BUTH     75       BUTH     DC2      DRUD     -2.19270      0.400000           0   0.00000       0.00000    
     15230 BUTH     75       BUTH     C3       CD32A     1.98270       11.6110           0  -1.59660       1.16930    
     15231 BUTH     75       BUTH     DC3      DRUD     -2.19270      0.400000           0   0.00000       0.00000    
     15232 BUTH     75       BUTH     C4       CD2O3A    2.72690       11.6110           0  -1.26130       1.05430    
     15233 BUTH     75       BUTH     DC4      DRUD     -1.94890      0.400000           0   0.00000       0.00000    
     15234 BUTH     75       BUTH     O1       OD2C1A    1.46540       15.5994           0 -0.713100      0.569800    
     15235 BUTH     75       BUTH     DO1      DRUD     -1.46540      0.400000           0   0.00000       0.00000    
     15236 BUTH     75       BUTH     O2       OD31A     1.58240       15.5990           0 -0.831500      0.749400    
     15237 BUTH     75       BUTH     DO2      DRUD     -1.58240      0.400000           0   0.00000       0.00000    
     15238 BUTH     75       BUTH     H1       HDA3A    0.900000E-01   1.00800           0   0.00000       0.00000    
     15239 BUTH     75       BUTH     H2       HDA3A    0.900000E-01   1.00800           0   0.00000       0.00000    
     15240 BUTH     75       BUTH     H3       HDA3A    0.900000E-01   1.00800           0   0.00000       0.00000    
     15241 BUTH     75       BUTH     H4       HDA2A    0.900000E-01   1.00800           0   0.00000       0.00000    
     15242 BUTH     75       BUTH     H5       HDA2A    0.900000E-01   1.00800           0   0.00000       0.00000    
     15243 BUTH     75       BUTH     H6       HDA2A    0.900000E-01   1.00800           0   0.00000       0.00000    
     15244 BUTH     75       BUTH     H7       HDA2A    0.900000E-01   1.00800           0   0.00000       0.00000    
     15245 BUTH     75       BUTH     H8       HDP1A    0.430000       1.00800           0   0.00000       0.00000    
     15246 BUTH     75       BUTH     H9       DUMH      0.00000       1.00800           0   0.00000       0.00000    
     15247 BUTH     75       BUTH     LPO11    LPDO1   -0.287000       0.00000          -1   0.00000       0.00000    
     15248 BUTH     75       BUTH     LPO12    LPDO1   -0.288000       0.00000          -1   0.00000       0.00000    
     15249 BUTH     75       BUTH     LPO21    LPD     -0.302000       0.00000          -1   0.00000       0.00000    
     15250 BUTH     75       BUTH     LPO22    LPD     -0.303000       0.00000          -1   0.00000       0.00000    
     15251 BUTH     76       BUTH     C1       CD33A     2.05990       11.6110           0  -1.81190       1.18670    
     15252 BUTH     76       BUTH     DC1      DRUD     -2.33590      0.400000           0   0.00000       0.00000    
     15253 BUTH     76       BUTH     C2       CD32A     2.02070       11.6110           0  -1.59660       1.16930    
     15254 BUTH     76       BUTH     DC2      DRUD     -2.19270      0.400000           0   0.00000       0.00000    
     15255 BUTH     76       BUTH     C3       CD32A     1.98270       11.6110           0  -1.59660       1.16930    
     15256 BUTH     76       BUTH     DC3      DRUD     -2.19270      0.400000           0   0.00000       0.00000    
     15257 BUTH     76       BUTH     C4       CD2O3A    2.72690       11.6110           0  -1.26130       1.05430    
     15258 BUTH     76       BUTH     DC4      DRUD     -1.94890      0.400000           0   0.00000       0.00000    
     15259 BUTH     76       BUTH     O1       OD2C1A    1.46540       15.5994           0 -0.713100      0.569800    
     15260 BUTH     76       BUTH     DO1      DRUD     -1.46540      0.400000           0   0.00000       0.00000    
     15261 BUTH     76       BUTH     O2       OD31A     1.58240       15.5990           0 -0.831500      0.749400    
     15262 BUTH     76       BUTH     DO2      DRUD     -1.58240      0.400000           0   0.00000       0.00000    
     15263 BUTH     76       BUTH     H1       HDA3A    0.900000E-01   1.00800           0   0.00000       0.00000    
     15264 BUTH     76       BUTH     H2       HDA3A    0.900000E-01   1.00800           0   0.00000       0.00000    
     15265 BUTH     76       BUTH     H3       HDA3A    0.900000E-01   1.00800           0   0.00000       0.00000    
     15266 BUTH     76       BUTH     H4       HDA2A    0.900000E-01   1.00800           0   0.00000       0.00000    
     15267 BUTH     76       BUTH     H5       HDA2A    0.900000E-01   1.00800           0   0.00000       0.00000    
     15268 BUTH     76       BUTH     H6       HDA2A    0.900000E-01   1.00800           0   0.00000       0.00000    
     15269 BUTH     76       BUTH     H7       HDA2A    0.900000E-01   1.00800           0   0.00000       0.00000    
     15270 BUTH     76       BUTH     H8       HDP1A    0.430000       1.00800           0   0.00000       0.00000    
     15271 BUTH     76       BUTH     H9       DUMH      0.00000       1.00800           0   0.00000       0.00000    
     15272 BUTH     76       BUTH     LPO11    LPDO1   -0.287000       0.00000          -1   0.00000       0.00000    
     15273 BUTH     76       BUTH     LPO12    LPDO1   -0.288000       0.00000          -1   0.00000       0.00000    
     15274 BUTH     76       BUTH     LPO21    LPD     -0.302000       0.00000          -1   0.00000       0.00000    
     15275 BUTH     76       BUTH     LPO22    LPD     -0.303000       0.00000          -1   0.00000       0.00000    
     15276 BUTH     77       BUTH     C1       CD33A     2.05990       11.6110           0  -1.81190       1.18670    
     15277 BUTH     77       BUTH     DC1      DRUD     -2.33590      0.400000           0   0.00000       0.00000    
     15278 BUTH     77       BUTH     C2       CD32A     2.02070       11.6110           0  -1.59660       1.16930    
     15279 BUTH     77       BUTH     DC2      DRUD     -2.19270      0.400000           0   0.00000       0.00000    
     15280 BUTH     77       BUTH     C3       CD32A     1.98270       11.6110           0  -1.59660       1.16930    
     15281 BUTH     77       BUTH     DC3      DRUD     -2.19270      0.400000           0   0.00000       0.00000    
     15282 BUTH     77       BUTH     C4       CD2O3A    2.72690       11.6110           0  -1.26130       1.05430    
     15283 BUTH     77       BUTH     DC4      DRUD     -1.94890      0.400000           0   0.00000       0.00000    
     15284 BUTH     77       BUTH     O1       OD2C1A    1.46540       15.5994           0 -0.713100      0.569800    
     15285 BUTH     77       BUTH     DO1      DRUD     -1.46540      0.400000           0   0.00000       0.00000    
     15286 BUTH     77       BUTH     O2       OD31A     1.58240       15.5990           0 -0.831500      0.749400    
     15287 BUTH     77       BUTH     DO2      DRUD     -1.58240      0.400000           0   0.00000       0.00000    
     15288 BUTH     77       BUTH     H1       HDA3A    0.900000E-01   1.00800           0   0.00000       0.00000    
     15289 BUTH     77       BUTH     H2       HDA3A    0.900000E-01   1.00800           0   0.00000       0.00000    
     15290 BUTH     77       BUTH     H3       HDA3A    0.900000E-01   1.00800           0   0.00000       0.00000    
     15291 BUTH     77       BUTH     H4       HDA2A    0.900000E-01   1.00800           0   0.00000       0.00000    
     15292 BUTH     77       BUTH     H5       HDA2A    0.900000E-01   1.00800           0   0.00000       0.00000    
     15293 BUTH     77       BUTH     H6       HDA2A    0.900000E-01   1.00800           0   0.00000       0.00000    
     15294 BUTH     77       BUTH     H7       HDA2A    0.900000E-01   1.00800           0   0.00000       0.00000    
     15295 BUTH     77       BUTH     H8       HDP1A    0.430000       1.00800           0   0.00000       0.00000    
     15296 BUTH     77       BUTH     H9       DUMH      0.00000       1.00800           0   0.00000       0.00000    
     15297 BUTH     77       BUTH     LPO11    LPDO1   -0.287000       0.00000          -1   0.00000       0.00000    
     15298 BUTH     77       BUTH     LPO12    LPDO1   -0.288000       0.00000          -1   0.00000       0.00000    
     15299 BUTH     77       BUTH     LPO21    LPD     -0.302000       0.00000          -1   0.00000       0.00000    
     15300 BUTH     77       BUTH     LPO22    LPD     -0.303000       0.00000          -1   0.00000       0.00000    
     15301 BUTH     78       BUTH     C1       CD33A     2.05990       11.6110           0  -1.81190       1.18670    
     15302 BUTH     78       BUTH     DC1      DRUD     -2.33590      0.400000           0   0.00000       0.00000    
     15303 BUTH     78       BUTH     C2       CD32A     2.02070       11.6110           0  -1.59660       1.16930    
     15304 BUTH     78       BUTH     DC2      DRUD     -2.19270      0.400000           0   0.00000       0.00000    
     15305 BUTH     78       BUTH     C3       CD32A     1.98270       11.6110           0  -1.59660       1.16930    
     15306 BUTH     78       BUTH     DC3      DRUD     -2.19270      0.400000           0   0.00000       0.00000    
     15307 BUTH     78       BUTH     C4       CD2O3A    2.72690       11.6110           0  -1.26130       1.05430    
     15308 BUTH     78       BUTH     DC4      DRUD     -1.94890      0.400000           0   0.00000       0.00000    
     15309 BUTH     78       BUTH     O1       OD2C1A    1.46540       15.5994           0 -0.713100      0.569800    
     15310 BUTH     78       BUTH     DO1      DRUD     -1.46540      0.400000           0   0.00000       0.00000    
     15311 BUTH     78       BUTH     O2       OD31A     1.58240       15.5990           0 -0.831500      0.749400    
     15312 BUTH     78       BUTH     DO2      DRUD     -1.58240      0.400000           0   0.00000       0.00000    
     15313 BUTH     78       BUTH     H1       HDA3A    0.900000E-01   1.00800           0   0.00000       0.00000    
     15314 BUTH     78       BUTH     H2       HDA3A    0.900000E-01   1.00800           0   0.00000       0.00000    
     15315 BUTH     78       BUTH     H3       HDA3A    0.900000E-01   1.00800           0   0.00000       0.00000    
     15316 BUTH     78       BUTH     H4       HDA2A    0.900000E-01   1.00800           0   0.00000       0.00000    
     15317 BUTH     78       BUTH     H5       HDA2A    0.900000E-01   1.00800           0   0.00000       0.00000    
     15318 BUTH     78       BUTH     H6       HDA2A    0.900000E-01   1.00800           0   0.00000       0.00000    
     15319 BUTH     78       BUTH     H7       HDA2A    0.900000E-01   1.00800           0   0.00000       0.00000    
     15320 BUTH     78       BUTH     H8       HDP1A    0.430000       1.00800           0   0.00000       0.00000    
     15321 BUTH     78       BUTH     H9       DUMH      0.00000       1.00800           0   0.00000       0.00000    
     15322 BUTH     78       BUTH     LPO11    LPDO1   -0.287000       0.00000          -1   0.00000       0.00000    
     15323 BUTH     78       BUTH     LPO12    LPDO1   -0.288000       0.00000          -1   0.00000       0.00000    
     15324 BUTH     78       BUTH     LPO21    LPD     -0.302000       0.00000          -1   0.00000       0.00000    
     15325 BUTH     78       BUTH     LPO22    LPD     -0.303000       0.00000          -1   0.00000       0.00000    
     15326 BUTH     79       BUTH     C1       CD33A     2.05990       11.6110           0  -1.81190       1.18670    
     15327 BUTH     79       BUTH     DC1      DRUD     -2.33590      0.400000           0   0.00000       0.00000    
     15328 BUTH     79       BUTH     C2       CD32A     2.02070       11.6110           0  -1.59660       1.16930    
     15329 BUTH     79       BUTH     DC2      DRUD     -2.19270      0.400000           0   0.00000       0.00000    
     15330 BUTH     79       BUTH     C3       CD32A     1.98270       11.6110           0  -1.59660       1.16930    
     15331 BUTH     79       BUTH     DC3      DRUD     -2.19270      0.400000           0   0.00000       0.00000    
     15332 BUTH     79       BUTH     C4       CD2O3A    2.72690       11.6110           0  -1.26130       1.05430    
     15333 BUTH     79       BUTH     DC4      DRUD     -1.94890      0.400000           0   0.00000       0.00000    
     15334 BUTH     79       BUTH     O1       OD2C1A    1.46540       15.5994           0 -0.713100      0.569800    
     15335 BUTH     79       BUTH     DO1      DRUD     -1.46540      0.400000           0   0.00000       0.00000    
     15336 BUTH     79       BUTH     O2       OD31A     1.58240       15.5990           0 -0.831500      0.749400    
     15337 BUTH     79       BUTH     DO2      DRUD     -1.58240      0.400000           0   0.00000       0.00000    
     15338 BUTH     79       BUTH     H1       HDA3A    0.900000E-01   1.00800           0   0.00000       0.00000    
     15339 BUTH     79       BUTH     H2       HDA3A    0.900000E-01   1.00800           0   0.00000       0.00000    
     15340 BUTH     79       BUTH     H3       HDA3A    0.900000E-01   1.00800           0   0.00000       0.00000    
     15341 BUTH     79       BUTH     H4       HDA2A    0.900000E-01   1.00800           0   0.00000       0.00000    
     15342 BUTH     79       BUTH     H5       HDA2A    0.900000E-01   1.00800           0   0.00000       0.00000    
     15343 BUTH     79       BUTH     H6       HDA2A    0.900000E-01   1.00800           0   0.00000       0.00000    
     15344 BUTH     79       BUTH     H7       HDA2A    0.900000E-01   1.00800           0   0.00000       0.00000    
     15345 BUTH     79       BUTH     H8       HDP1A    0.430000       1.00800           0   0.00000       0.00000    
     15346 BUTH     79       BUTH     H9       DUMH      0.00000       1.00800           0   0.00000       0.00000    
     15347 BUTH     79       BUTH     LPO11    LPDO1   -0.287000       0.00000          -1   0.00000       0.00000    
     15348 BUTH     79       BUTH     LPO12    LPDO1   -0.288000       0.00000          -1   0.00000       0.00000    
     15349 BUTH     79       BUTH     LPO21    LPD     -0.302000       0.00000          -1   0.00000       0.00000    
     15350 BUTH     79       BUTH     LPO22    LPD     -0.303000       0.00000          -1   0.00000       0.00000    
     15351 BUTH     80       BUTH     C1       CD33A     2.05990       11.6110           0  -1.81190       1.18670    
     15352 BUTH     80       BUTH     DC1      DRUD     -2.33590      0.400000           0   0.00000       0.00000    
     15353 BUTH     80       BUTH     C2       CD32A     2.02070       11.6110           0  -1.59660       1.16930    
     15354 BUTH     80       BUTH     DC2      DRUD     -2.19270      0.400000           0   0.00000       0.00000    
     15355 BUTH     80       BUTH     C3       CD32A     1.98270       11.6110           0  -1.59660       1.16930    
     15356 BUTH     80       BUTH     DC3      DRUD     -2.19270      0.400000           0   0.00000       0.00000    
     15357 BUTH     80       BUTH     C4       CD2O3A    2.72690       11.6110           0  -1.26130       1.05430    
     15358 BUTH     80       BUTH     DC4      DRUD     -1.94890      0.400000           0   0.00000       0.00000    
     15359 BUTH     80       BUTH     O1       OD2C1A    1.46540       15.5994           0 -0.713100      0.569800    
     15360 BUTH     80       BUTH     DO1      DRUD     -1.46540      0.400000           0   0.00000       0.00000    
     15361 BUTH     80       BUTH     O2       OD31A     1.58240       15.5990           0 -0.831500      0.749400    
     15362 BUTH     80       BUTH     DO2      DRUD     -1.58240      0.400000           0   0.00000       0.00000    
     15363 BUTH     80       BUTH     H1       HDA3A    0.900000E-01   1.00800           0   0.00000       0.00000    
     15364 BUTH     80       BUTH     H2       HDA3A    0.900000E-01   1.00800           0   0.00000       0.00000    
     15365 BUTH     80       BUTH     H3       HDA3A    0.900000E-01   1.00800           0   0.00000       0.00000    
     15366 BUTH     80       BUTH     H4       HDA2A    0.900000E-01   1.00800           0   0.00000       0.00000    
     15367 BUTH     80       BUTH     H5       HDA2A    0.900000E-01   1.00800           0   0.00000       0.00000    
     15368 BUTH     80       BUTH     H6       HDA2A    0.900000E-01   1.00800           0   0.00000       0.00000    
     15369 BUTH     80       BUTH     H7       HDA2A    0.900000E-01   1.00800           0   0.00000       0.00000    
     15370 BUTH     80       BUTH     H8       HDP1A    0.430000       1.00800           0   0.00000       0.00000    
     15371 BUTH     80       BUTH     H9       DUMH      0.00000       1.00800           0   0.00000       0.00000    
     15372 BUTH     80       BUTH     LPO11    LPDO1   -0.287000       0.00000          -1   0.00000       0.00000    
     15373 BUTH     80       BUTH     LPO12    LPDO1   -0.288000       0.00000          -1   0.00000       0.00000    
     15374 BUTH     80       BUTH     LPO21    LPD     -0.302000       0.00000          -1   0.00000       0.00000    
     15375 BUTH     80       BUTH     LPO22    LPD     -0.303000       0.00000          -1   0.00000       0.00000    
     15376 BUTH     81       BUTH     C1       CD33A     2.05990       11.6110           0  -1.81190       1.18670    
     15377 BUTH     81       BUTH     DC1      DRUD     -2.33590      0.400000           0   0.00000       0.00000    
     15378 BUTH     81       BUTH     C2       CD32A     2.02070       11.6110           0  -1.59660       1.16930    
     15379 BUTH     81       BUTH     DC2      DRUD     -2.19270      0.400000           0   0.00000       0.00000    
     15380 BUTH     81       BUTH     C3       CD32A     1.98270       11.6110           0  -1.59660       1.16930    
     15381 BUTH     81       BUTH     DC3      DRUD     -2.19270      0.400000           0   0.00000       0.00000    
     15382 BUTH     81       BUTH     C4       CD2O3A    2.72690       11.6110           0  -1.26130       1.05430    
     15383 BUTH     81       BUTH     DC4      DRUD     -1.94890      0.400000           0   0.00000       0.00000    
     15384 BUTH     81       BUTH     O1       OD2C1A    1.46540       15.5994           0 -0.713100      0.569800    
     15385 BUTH     81       BUTH     DO1      DRUD     -1.46540      0.400000           0   0.00000       0.00000    
     15386 BUTH     81       BUTH     O2       OD31A     1.58240       15.5990           0 -0.831500      0.749400    
     15387 BUTH     81       BUTH     DO2      DRUD     -1.58240      0.400000           0   0.00000       0.00000    
     15388 BUTH     81       BUTH     H1       HDA3A    0.900000E-01   1.00800           0   0.00000       0.00000    
     15389 BUTH     81       BUTH     H2       HDA3A    0.900000E-01   1.00800           0   0.00000       0.00000    
     15390 BUTH     81       BUTH     H3       HDA3A    0.900000E-01   1.00800           0   0.00000       0.00000    
     15391 BUTH     81       BUTH     H4       HDA2A    0.900000E-01   1.00800           0   0.00000       0.00000    
     15392 BUTH     81       BUTH     H5       HDA2A    0.900000E-01   1.00800           0   0.00000       0.00000    
     15393 BUTH     81       BUTH     H6       HDA2A    0.900000E-01   1.00800           0   0.00000       0.00000    
     15394 BUTH     81       BUTH     H7       HDA2A    0.900000E-01   1.00800           0   0.00000       0.00000    
     15395 BUTH     81       BUTH     H8       HDP1A    0.430000       1.00800           0   0.00000       0.00000    
     15396 BUTH     81       BUTH     H9       DUMH      0.00000       1.00800           0   0.00000       0.00000    
     15397 BUTH     81       BUTH     LPO11    LPDO1   -0.287000       0.00000          -1   0.00000       0.00000    
     15398 BUTH     81       BUTH     LPO12    LPDO1   -0.288000       0.00000          -1   0.00000       0.00000    
     15399 BUTH     81       BUTH     LPO21    LPD     -0.302000       0.00000          -1   0.00000       0.00000    
     15400 BUTH     81       BUTH     LPO22    LPD     -0.303000       0.00000          -1   0.00000       0.00000    
     15401 BUTH     82       BUTH     C1       CD33A     2.05990       11.6110           0  -1.81190       1.18670    
     15402 BUTH     82       BUTH     DC1      DRUD     -2.33590      0.400000           0   0.00000       0.00000    
     15403 BUTH     82       BUTH     C2       CD32A     2.02070       11.6110           0  -1.59660       1.16930    
     15404 BUTH     82       BUTH     DC2      DRUD     -2.19270      0.400000           0   0.00000       0.00000    
     15405 BUTH     82       BUTH     C3       CD32A     1.98270       11.6110           0  -1.59660       1.16930    
     15406 BUTH     82       BUTH     DC3      DRUD     -2.19270      0.400000           0   0.00000       0.00000    
     15407 BUTH     82       BUTH     C4       CD2O3A    2.72690       11.6110           0  -1.26130       1.05430    
     15408 BUTH     82       BUTH     DC4      DRUD     -1.94890      0.400000           0   0.00000       0.00000    
     15409 BUTH     82       BUTH     O1       OD2C1A    1.46540       15.5994           0 -0.713100      0.569800    
     15410 BUTH     82       BUTH     DO1      DRUD     -1.46540      0.400000           0   0.00000       0.00000    
     15411 BUTH     82       BUTH     O2       OD31A     1.58240       15.5990           0 -0.831500      0.749400    
     15412 BUTH     82       BUTH     DO2      DRUD     -1.58240      0.400000           0   0.00000       0.00000    
     15413 BUTH     82       BUTH     H1       HDA3A    0.900000E-01   1.00800           0   0.00000       0.00000    
     15414 BUTH     82       BUTH     H2       HDA3A    0.900000E-01   1.00800           0   0.00000       0.00000    
     15415 BUTH     82       BUTH     H3       HDA3A    0.900000E-01   1.00800           0   0.00000       0.00000    
     15416 BUTH     82       BUTH     H4       HDA2A    0.900000E-01   1.00800           0   0.00000       0.00000    
     15417 BUTH     82       BUTH     H5       HDA2A    0.900000E-01   1.00800           0   0.00000       0.00000    
     15418 BUTH     82       BUTH     H6       HDA2A    0.900000E-01   1.00800           0   0.00000       0.00000    
     15419 BUTH     82       BUTH     H7       HDA2A    0.900000E-01   1.00800           0   0.00000       0.00000    
     15420 BUTH     82       BUTH     H8       HDP1A    0.430000       1.00800           0   0.00000       0.00000    
     15421 BUTH     82       BUTH     H9       DUMH      0.00000       1.00800           0   0.00000       0.00000    
     15422 BUTH     82       BUTH     LPO11    LPDO1   -0.287000       0.00000          -1   0.00000       0.00000    
     15423 BUTH     82       BUTH     LPO12    LPDO1   -0.288000       0.00000          -1   0.00000       0.00000    
     15424 BUTH     82       BUTH     LPO21    LPD     -0.302000       0.00000          -1   0.00000       0.00000    
     15425 BUTH     82       BUTH     LPO22    LPD     -0.303000       0.00000          -1   0.00000       0.00000    
     15426 BUTH     83       BUTH     C1       CD33A     2.05990       11.6110           0  -1.81190       1.18670    
     15427 BUTH     83       BUTH     DC1      DRUD     -2.33590      0.400000           0   0.00000       0.00000    
     15428 BUTH     83       BUTH     C2       CD32A     2.02070       11.6110           0  -1.59660       1.16930    
     15429 BUTH     83       BUTH     DC2      DRUD     -2.19270      0.400000           0   0.00000       0.00000    
     15430 BUTH     83       BUTH     C3       CD32A     1.98270       11.6110           0  -1.59660       1.16930    
     15431 BUTH     83       BUTH     DC3      DRUD     -2.19270      0.400000           0   0.00000       0.00000    
     15432 BUTH     83       BUTH     C4       CD2O3A    2.72690       11.6110           0  -1.26130       1.05430    
     15433 BUTH     83       BUTH     DC4      DRUD     -1.94890      0.400000           0   0.00000       0.00000    
     15434 BUTH     83       BUTH     O1       OD2C1A    1.46540       15.5994           0 -0.713100      0.569800    
     15435 BUTH     83       BUTH     DO1      DRUD     -1.46540      0.400000           0   0.00000       0.00000    
     15436 BUTH     83       BUTH     O2       OD31A     1.58240       15.5990           0 -0.831500      0.749400    
     15437 BUTH     83       BUTH     DO2      DRUD     -1.58240      0.400000           0   0.00000       0.00000    
     15438 BUTH     83       BUTH     H1       HDA3A    0.900000E-01   1.00800           0   0.00000       0.00000    
     15439 BUTH     83       BUTH     H2       HDA3A    0.900000E-01   1.00800           0   0.00000       0.00000    
     15440 BUTH     83       BUTH     H3       HDA3A    0.900000E-01   1.00800           0   0.00000       0.00000    
     15441 BUTH     83       BUTH     H4       HDA2A    0.900000E-01   1.00800           0   0.00000       0.00000    
     15442 BUTH     83       BUTH     H5       HDA2A    0.900000E-01   1.00800           0   0.00000       0.00000    
     15443 BUTH     83       BUTH     H6       HDA2A    0.900000E-01   1.00800           0   0.00000       0.00000    
     15444 BUTH     83       BUTH     H7       HDA2A    0.900000E-01   1.00800           0   0.00000       0.00000    
     15445 BUTH     83       BUTH     H8       HDP1A    0.430000       1.00800           0   0.00000       0.00000    
     15446 BUTH     83       BUTH     H9       DUMH      0.00000       1.00800           0   0.00000       0.00000    
     15447 BUTH     83       BUTH     LPO11    LPDO1   -0.287000       0.00000          -1   0.00000       0.00000    
     15448 BUTH     83       BUTH     LPO12    LPDO1   -0.288000       0.00000          -1   0.00000       0.00000    
     15449 BUTH     83       BUTH     LPO21    LPD     -0.302000       0.00000          -1   0.00000       0.00000    
     15450 BUTH     83       BUTH     LPO22    LPD     -0.303000       0.00000          -1   0.00000       0.00000    
     15451 BUTH     84       BUTH     C1       CD33A     2.05990       11.6110           0  -1.81190       1.18670    
     15452 BUTH     84       BUTH     DC1      DRUD     -2.33590      0.400000           0   0.00000       0.00000    
     15453 BUTH     84       BUTH     C2       CD32A     2.02070       11.6110           0  -1.59660       1.16930    
     15454 BUTH     84       BUTH     DC2      DRUD     -2.19270      0.400000           0   0.00000       0.00000    
     15455 BUTH     84       BUTH     C3       CD32A     1.98270       11.6110           0  -1.59660       1.16930    
     15456 BUTH     84       BUTH     DC3      DRUD     -2.19270      0.400000           0   0.00000       0.00000    
     15457 BUTH     84       BUTH     C4       CD2O3A    2.72690       11.6110           0  -1.26130       1.05430    
     15458 BUTH     84       BUTH     DC4      DRUD     -1.94890      0.400000           0   0.00000       0.00000    
     15459 BUTH     84       BUTH     O1       OD2C1A    1.46540       15.5994           0 -0.713100      0.569800    
     15460 BUTH     84       BUTH     DO1      DRUD     -1.46540      0.400000           0   0.00000       0.00000    
     15461 BUTH     84       BUTH     O2       OD31A     1.58240       15.5990           0 -0.831500      0.749400    
     15462 BUTH     84       BUTH     DO2      DRUD     -1.58240      0.400000           0   0.00000       0.00000    
     15463 BUTH     84       BUTH     H1       HDA3A    0.900000E-01   1.00800           0   0.00000       0.00000    
     15464 BUTH     84       BUTH     H2       HDA3A    0.900000E-01   1.00800           0   0.00000       0.00000    
     15465 BUTH     84       BUTH     H3       HDA3A    0.900000E-01   1.00800           0   0.00000       0.00000    
     15466 BUTH     84       BUTH     H4       HDA2A    0.900000E-01   1.00800           0   0.00000       0.00000    
     15467 BUTH     84       BUTH     H5       HDA2A    0.900000E-01   1.00800           0   0.00000       0.00000    
     15468 BUTH     84       BUTH     H6       HDA2A    0.900000E-01   1.00800           0   0.00000       0.00000    
     15469 BUTH     84       BUTH     H7       HDA2A    0.900000E-01   1.00800           0   0.00000       0.00000    
     15470 BUTH     84       BUTH     H8       HDP1A    0.430000       1.00800           0   0.00000       0.00000    
     15471 BUTH     84       BUTH     H9       DUMH      0.00000       1.00800           0   0.00000       0.00000    
     15472 BUTH     84       BUTH     LPO11    LPDO1   -0.287000       0.00000          -1   0.00000       0.00000    
     15473 BUTH     84       BUTH     LPO12    LPDO1   -0.288000       0.00000          -1   0.00000       0.00000    
     15474 BUTH     84       BUTH     LPO21    LPD     -0.302000       0.00000          -1   0.00000       0.00000    
     15475 BUTH     84       BUTH     LPO22    LPD     -0.303000       0.00000          -1   0.00000       0.00000    
     15476 BUTH     85       BUTH     C1       CD33A     2.05990       11.6110           0  -1.81190       1.18670    
     15477 BUTH     85       BUTH     DC1      DRUD     -2.33590      0.400000           0   0.00000       0.00000    
     15478 BUTH     85       BUTH     C2       CD32A     2.02070       11.6110           0  -1.59660       1.16930    
     15479 BUTH     85       BUTH     DC2      DRUD     -2.19270      0.400000           0   0.00000       0.00000    
     15480 BUTH     85       BUTH     C3       CD32A     1.98270       11.6110           0  -1.59660       1.16930    
     15481 BUTH     85       BUTH     DC3      DRUD     -2.19270      0.400000           0   0.00000       0.00000    
     15482 BUTH     85       BUTH     C4       CD2O3A    2.72690       11.6110           0  -1.26130       1.05430    
     15483 BUTH     85       BUTH     DC4      DRUD     -1.94890      0.400000           0   0.00000       0.00000    
     15484 BUTH     85       BUTH     O1       OD2C1A    1.46540       15.5994           0 -0.713100      0.569800    
     15485 BUTH     85       BUTH     DO1      DRUD     -1.46540      0.400000           0   0.00000       0.00000    
     15486 BUTH     85       BUTH     O2       OD31A     1.58240       15.5990           0 -0.831500      0.749400    
     15487 BUTH     85       BUTH     DO2      DRUD     -1.58240      0.400000           0   0.00000       0.00000    
     15488 BUTH     85       BUTH     H1       HDA3A    0.900000E-01   1.00800           0   0.00000       0.00000    
     15489 BUTH     85       BUTH     H2       HDA3A    0.900000E-01   1.00800           0   0.00000       0.00000    
     15490 BUTH     85       BUTH     H3       HDA3A    0.900000E-01   1.00800           0   0.00000       0.00000    
     15491 BUTH     85       BUTH     H4       HDA2A    0.900000E-01   1.00800           0   0.00000       0.00000    
     15492 BUTH     85       BUTH     H5       HDA2A    0.900000E-01   1.00800           0   0.00000       0.00000    
     15493 BUTH     85       BUTH     H6       HDA2A    0.900000E-01   1.00800           0   0.00000       0.00000    
     15494 BUTH     85       BUTH     H7       HDA2A    0.900000E-01   1.00800           0   0.00000       0.00000    
     15495 BUTH     85       BUTH     H8       HDP1A    0.430000       1.00800           0   0.00000       0.00000    
     15496 BUTH     85       BUTH     H9       DUMH      0.00000       1.00800           0   0.00000       0.00000    
     15497 BUTH     85       BUTH     LPO11    LPDO1   -0.287000       0.00000          -1   0.00000       0.00000    
     15498 BUTH     85       BUTH     LPO12    LPDO1   -0.288000       0.00000          -1   0.00000       0.00000    
     15499 BUTH     85       BUTH     LPO21    LPD     -0.302000       0.00000          -1   0.00000       0.00000    
     15500 BUTH     85       BUTH     LPO22    LPD     -0.303000       0.00000          -1   0.00000       0.00000    
     15501 BUTH     86       BUTH     C1       CD33A     2.05990       11.6110           0  -1.81190       1.18670    
     15502 BUTH     86       BUTH     DC1      DRUD     -2.33590      0.400000           0   0.00000       0.00000    
     15503 BUTH     86       BUTH     C2       CD32A     2.02070       11.6110           0  -1.59660       1.16930    
     15504 BUTH     86       BUTH     DC2      DRUD     -2.19270      0.400000           0   0.00000       0.00000    
     15505 BUTH     86       BUTH     C3       CD32A     1.98270       11.6110           0  -1.59660       1.16930    
     15506 BUTH     86       BUTH     DC3      DRUD     -2.19270      0.400000           0   0.00000       0.00000    
     15507 BUTH     86       BUTH     C4       CD2O3A    2.72690       11.6110           0  -1.26130       1.05430    
     15508 BUTH     86       BUTH     DC4      DRUD     -1.94890      0.400000           0   0.00000       0.00000    
     15509 BUTH     86       BUTH     O1       OD2C1A    1.46540       15.5994           0 -0.713100      0.569800    
     15510 BUTH     86       BUTH     DO1      DRUD     -1.46540      0.400000           0   0.00000       0.00000    
     15511 BUTH     86       BUTH     O2       OD31A     1.58240       15.5990           0 -0.831500      0.749400    
     15512 BUTH     86       BUTH     DO2      DRUD     -1.58240      0.400000           0   0.00000       0.00000    
     15513 BUTH     86       BUTH     H1       HDA3A    0.900000E-01   1.00800           0   0.00000       0.00000    
     15514 BUTH     86       BUTH     H2       HDA3A    0.900000E-01   1.00800           0   0.00000       0.00000    
     15515 BUTH     86       BUTH     H3       HDA3A    0.900000E-01   1.00800           0   0.00000       0.00000    
     15516 BUTH     86       BUTH     H4       HDA2A    0.900000E-01   1.00800           0   0.00000       0.00000    
     15517 BUTH     86       BUTH     H5       HDA2A    0.900000E-01   1.00800           0   0.00000       0.00000    
     15518 BUTH     86       BUTH     H6       HDA2A    0.900000E-01   1.00800           0   0.00000       0.00000    
     15519 BUTH     86       BUTH     H7       HDA2A    0.900000E-01   1.00800           0   0.00000       0.00000    
     15520 BUTH     86       BUTH     H8       HDP1A    0.430000       1.00800           0   0.00000       0.00000    
     15521 BUTH     86       BUTH     H9       DUMH      0.00000       1.00800           0   0.00000       0.00000    
     15522 BUTH     86       BUTH     LPO11    LPDO1   -0.287000       0.00000          -1   0.00000       0.00000    
     15523 BUTH     86       BUTH     LPO12    LPDO1   -0.288000       0.00000          -1   0.00000       0.00000    
     15524 BUTH     86       BUTH     LPO21    LPD     -0.302000       0.00000          -1   0.00000       0.00000    
     15525 BUTH     86       BUTH     LPO22    LPD     -0.303000       0.00000          -1   0.00000       0.00000    
     15526 BUTH     87       BUTH     C1       CD33A     2.05990       11.6110           0  -1.81190       1.18670    
     15527 BUTH     87       BUTH     DC1      DRUD     -2.33590      0.400000           0   0.00000       0.00000    
     15528 BUTH     87       BUTH     C2       CD32A     2.02070       11.6110           0  -1.59660       1.16930    
     15529 BUTH     87       BUTH     DC2      DRUD     -2.19270      0.400000           0   0.00000       0.00000    
     15530 BUTH     87       BUTH     C3       CD32A     1.98270       11.6110           0  -1.59660       1.16930    
     15531 BUTH     87       BUTH     DC3      DRUD     -2.19270      0.400000           0   0.00000       0.00000    
     15532 BUTH     87       BUTH     C4       CD2O3A    2.72690       11.6110           0  -1.26130       1.05430    
     15533 BUTH     87       BUTH     DC4      DRUD     -1.94890      0.400000           0   0.00000       0.00000    
     15534 BUTH     87       BUTH     O1       OD2C1A    1.46540       15.5994           0 -0.713100      0.569800    
     15535 BUTH     87       BUTH     DO1      DRUD     -1.46540      0.400000           0   0.00000       0.00000    
     15536 BUTH     87       BUTH     O2       OD31A     1.58240       15.5990           0 -0.831500      0.749400    
     15537 BUTH     87       BUTH     DO2      DRUD     -1.58240      0.400000           0   0.00000       0.00000    
     15538 BUTH     87       BUTH     H1       HDA3A    0.900000E-01   1.00800           0   0.00000       0.00000    
     15539 BUTH     87       BUTH     H2       HDA3A    0.900000E-01   1.00800           0   0.00000       0.00000    
     15540 BUTH     87       BUTH     H3       HDA3A    0.900000E-01   1.00800           0   0.00000       0.00000    
     15541 BUTH     87       BUTH     H4       HDA2A    0.900000E-01   1.00800           0   0.00000       0.00000    
     15542 BUTH     87       BUTH     H5       HDA2A    0.900000E-01   1.00800           0   0.00000       0.00000    
     15543 BUTH     87       BUTH     H6       HDA2A    0.900000E-01   1.00800           0   0.00000       0.00000    
     15544 BUTH     87       BUTH     H7       HDA2A    0.900000E-01   1.00800           0   0.00000       0.00000    
     15545 BUTH     87       BUTH     H8       HDP1A    0.430000       1.00800           0   0.00000       0.00000    
     15546 BUTH     87       BUTH     H9       DUMH      0.00000       1.00800           0   0.00000       0.00000    
     15547 BUTH     87       BUTH     LPO11    LPDO1   -0.287000       0.00000          -1   0.00000       0.00000    
     15548 BUTH     87       BUTH     LPO12    LPDO1   -0.288000       0.00000          -1   0.00000       0.00000    
     15549 BUTH     87       BUTH     LPO21    LPD     -0.302000       0.00000          -1   0.00000       0.00000    
     15550 BUTH     87       BUTH     LPO22    LPD     -0.303000       0.00000          -1   0.00000       0.00000    
     15551 BUTH     88       BUTH     C1       CD33A     2.05990       11.6110           0  -1.81190       1.18670    
     15552 BUTH     88       BUTH     DC1      DRUD     -2.33590      0.400000           0   0.00000       0.00000    
     15553 BUTH     88       BUTH     C2       CD32A     2.02070       11.6110           0  -1.59660       1.16930    
     15554 BUTH     88       BUTH     DC2      DRUD     -2.19270      0.400000           0   0.00000       0.00000    
     15555 BUTH     88       BUTH     C3       CD32A     1.98270       11.6110           0  -1.59660       1.16930    
     15556 BUTH     88       BUTH     DC3      DRUD     -2.19270      0.400000           0   0.00000       0.00000    
     15557 BUTH     88       BUTH     C4       CD2O3A    2.72690       11.6110           0  -1.26130       1.05430    
     15558 BUTH     88       BUTH     DC4      DRUD     -1.94890      0.400000           0   0.00000       0.00000    
     15559 BUTH     88       BUTH     O1       OD2C1A    1.46540       15.5994           0 -0.713100      0.569800    
     15560 BUTH     88       BUTH     DO1      DRUD     -1.46540      0.400000           0   0.00000       0.00000    
     15561 BUTH     88       BUTH     O2       OD31A     1.58240       15.5990           0 -0.831500      0.749400    
     15562 BUTH     88       BUTH     DO2      DRUD     -1.58240      0.400000           0   0.00000       0.00000    
     15563 BUTH     88       BUTH     H1       HDA3A    0.900000E-01   1.00800           0   0.00000       0.00000    
     15564 BUTH     88       BUTH     H2       HDA3A    0.900000E-01   1.00800           0   0.00000       0.00000    
     15565 BUTH     88       BUTH     H3       HDA3A    0.900000E-01   1.00800           0   0.00000       0.00000    
     15566 BUTH     88       BUTH     H4       HDA2A    0.900000E-01   1.00800           0   0.00000       0.00000    
     15567 BUTH     88       BUTH     H5       HDA2A    0.900000E-01   1.00800           0   0.00000       0.00000    
     15568 BUTH     88       BUTH     H6       HDA2A    0.900000E-01   1.00800           0   0.00000       0.00000    
     15569 BUTH     88       BUTH     H7       HDA2A    0.900000E-01   1.00800           0   0.00000       0.00000    
     15570 BUTH     88       BUTH     H8       HDP1A    0.430000       1.00800           0   0.00000       0.00000    
     15571 BUTH     88       BUTH     H9       DUMH      0.00000       1.00800           0   0.00000       0.00000    
     15572 BUTH     88       BUTH     LPO11    LPDO1   -0.287000       0.00000          -1   0.00000       0.00000    
     15573 BUTH     88       BUTH     LPO12    LPDO1   -0.288000       0.00000          -1   0.00000       0.00000    
     15574 BUTH     88       BUTH     LPO21    LPD     -0.302000       0.00000          -1   0.00000       0.00000    
     15575 BUTH     88       BUTH     LPO22    LPD     -0.303000       0.00000          -1   0.00000       0.00000    
     15576 BUTH     89       BUTH     C1       CD33A     2.05990       11.6110           0  -1.81190       1.18670    
     15577 BUTH     89       BUTH     DC1      DRUD     -2.33590      0.400000           0   0.00000       0.00000    
     15578 BUTH     89       BUTH     C2       CD32A     2.02070       11.6110           0  -1.59660       1.16930    
     15579 BUTH     89       BUTH     DC2      DRUD     -2.19270      0.400000           0   0.00000       0.00000    
     15580 BUTH     89       BUTH     C3       CD32A     1.98270       11.6110           0  -1.59660       1.16930    
     15581 BUTH     89       BUTH     DC3      DRUD     -2.19270      0.400000           0   0.00000       0.00000    
     15582 BUTH     89       BUTH     C4       CD2O3A    2.72690       11.6110           0  -1.26130       1.05430    
     15583 BUTH     89       BUTH     DC4      DRUD     -1.94890      0.400000           0   0.00000       0.00000    
     15584 BUTH     89       BUTH     O1       OD2C1A    1.46540       15.5994           0 -0.713100      0.569800    
     15585 BUTH     89       BUTH     DO1      DRUD     -1.46540      0.400000           0   0.00000       0.00000    
     15586 BUTH     89       BUTH     O2       OD31A     1.58240       15.5990           0 -0.831500      0.749400    
     15587 BUTH     89       BUTH     DO2      DRUD     -1.58240      0.400000           0   0.00000       0.00000    
     15588 BUTH     89       BUTH     H1       HDA3A    0.900000E-01   1.00800           0   0.00000       0.00000    
     15589 BUTH     89       BUTH     H2       HDA3A    0.900000E-01   1.00800           0   0.00000       0.00000    
     15590 BUTH     89       BUTH     H3       HDA3A    0.900000E-01   1.00800           0   0.00000       0.00000    
     15591 BUTH     89       BUTH     H4       HDA2A    0.900000E-01   1.00800           0   0.00000       0.00000    
     15592 BUTH     89       BUTH     H5       HDA2A    0.900000E-01   1.00800           0   0.00000       0.00000    
     15593 BUTH     89       BUTH     H6       HDA2A    0.900000E-01   1.00800           0   0.00000       0.00000    
     15594 BUTH     89       BUTH     H7       HDA2A    0.900000E-01   1.00800           0   0.00000       0.00000    
     15595 BUTH     89       BUTH     H8       HDP1A    0.430000       1.00800           0   0.00000       0.00000    
     15596 BUTH     89       BUTH     H9       DUMH      0.00000       1.00800           0   0.00000       0.00000    
     15597 BUTH     89       BUTH     LPO11    LPDO1   -0.287000       0.00000          -1   0.00000       0.00000    
     15598 BUTH     89       BUTH     LPO12    LPDO1   -0.288000       0.00000          -1   0.00000       0.00000    
     15599 BUTH     89       BUTH     LPO21    LPD     -0.302000       0.00000          -1   0.00000       0.00000    
     15600 BUTH     89       BUTH     LPO22    LPD     -0.303000       0.00000          -1   0.00000       0.00000    
     15601 BUTH     90       BUTH     C1       CD33A     2.05990       11.6110           0  -1.81190       1.18670    
     15602 BUTH     90       BUTH     DC1      DRUD     -2.33590      0.400000           0   0.00000       0.00000    
     15603 BUTH     90       BUTH     C2       CD32A     2.02070       11.6110           0  -1.59660       1.16930    
     15604 BUTH     90       BUTH     DC2      DRUD     -2.19270      0.400000           0   0.00000       0.00000    
     15605 BUTH     90       BUTH     C3       CD32A     1.98270       11.6110           0  -1.59660       1.16930    
     15606 BUTH     90       BUTH     DC3      DRUD     -2.19270      0.400000           0   0.00000       0.00000    
     15607 BUTH     90       BUTH     C4       CD2O3A    2.72690       11.6110           0  -1.26130       1.05430    
     15608 BUTH     90       BUTH     DC4      DRUD     -1.94890      0.400000           0   0.00000       0.00000    
     15609 BUTH     90       BUTH     O1       OD2C1A    1.46540       15.5994           0 -0.713100      0.569800    
     15610 BUTH     90       BUTH     DO1      DRUD     -1.46540      0.400000           0   0.00000       0.00000    
     15611 BUTH     90       BUTH     O2       OD31A     1.58240       15.5990           0 -0.831500      0.749400    
     15612 BUTH     90       BUTH     DO2      DRUD     -1.58240      0.400000           0   0.00000       0.00000    
     15613 BUTH     90       BUTH     H1       HDA3A    0.900000E-01   1.00800           0   0.00000       0.00000    
     15614 BUTH     90       BUTH     H2       HDA3A    0.900000E-01   1.00800           0   0.00000       0.00000    
     15615 BUTH     90       BUTH     H3       HDA3A    0.900000E-01   1.00800           0   0.00000       0.00000    
     15616 BUTH     90       BUTH     H4       HDA2A    0.900000E-01   1.00800           0   0.00000       0.00000    
     15617 BUTH     90       BUTH     H5       HDA2A    0.900000E-01   1.00800           0   0.00000       0.00000    
     15618 BUTH     90       BUTH     H6       HDA2A    0.900000E-01   1.00800           0   0.00000       0.00000    
     15619 BUTH     90       BUTH     H7       HDA2A    0.900000E-01   1.00800           0   0.00000       0.00000    
     15620 BUTH     90       BUTH     H8       HDP1A    0.430000       1.00800           0   0.00000       0.00000    
     15621 BUTH     90       BUTH     H9       DUMH      0.00000       1.00800           0   0.00000       0.00000    
     15622 BUTH     90       BUTH     LPO11    LPDO1   -0.287000       0.00000          -1   0.00000       0.00000    
     15623 BUTH     90       BUTH     LPO12    LPDO1   -0.288000       0.00000          -1   0.00000       0.00000    
     15624 BUTH     90       BUTH     LPO21    LPD     -0.302000       0.00000          -1   0.00000       0.00000    
     15625 BUTH     90       BUTH     LPO22    LPD     -0.303000       0.00000          -1   0.00000       0.00000    
     15626 BUTH     91       BUTH     C1       CD33A     2.05990       11.6110           0  -1.81190       1.18670    
     15627 BUTH     91       BUTH     DC1      DRUD     -2.33590      0.400000           0   0.00000       0.00000    
     15628 BUTH     91       BUTH     C2       CD32A     2.02070       11.6110           0  -1.59660       1.16930    
     15629 BUTH     91       BUTH     DC2      DRUD     -2.19270      0.400000           0   0.00000       0.00000    
     15630 BUTH     91       BUTH     C3       CD32A     1.98270       11.6110           0  -1.59660       1.16930    
     15631 BUTH     91       BUTH     DC3      DRUD     -2.19270      0.400000           0   0.00000       0.00000    
     15632 BUTH     91       BUTH     C4       CD2O3A    2.72690       11.6110           0  -1.26130       1.05430    
     15633 BUTH     91       BUTH     DC4      DRUD     -1.94890      0.400000           0   0.00000       0.00000    
     15634 BUTH     91       BUTH     O1       OD2C1A    1.46540       15.5994           0 -0.713100      0.569800    
     15635 BUTH     91       BUTH     DO1      DRUD     -1.46540      0.400000           0   0.00000       0.00000    
     15636 BUTH     91       BUTH     O2       OD31A     1.58240       15.5990           0 -0.831500      0.749400    
     15637 BUTH     91       BUTH     DO2      DRUD     -1.58240      0.400000           0   0.00000       0.00000    
     15638 BUTH     91       BUTH     H1       HDA3A    0.900000E-01   1.00800           0   0.00000       0.00000    
     15639 BUTH     91       BUTH     H2       HDA3A    0.900000E-01   1.00800           0   0.00000       0.00000    
     15640 BUTH     91       BUTH     H3       HDA3A    0.900000E-01   1.00800           0   0.00000       0.00000    
     15641 BUTH     91       BUTH     H4       HDA2A    0.900000E-01   1.00800           0   0.00000       0.00000    
     15642 BUTH     91       BUTH     H5       HDA2A    0.900000E-01   1.00800           0   0.00000       0.00000    
     15643 BUTH     91       BUTH     H6       HDA2A    0.900000E-01   1.00800           0   0.00000       0.00000    
     15644 BUTH     91       BUTH     H7       HDA2A    0.900000E-01   1.00800           0   0.00000       0.00000    
     15645 BUTH     91       BUTH     H8       HDP1A    0.430000       1.00800           0   0.00000       0.00000    
     15646 BUTH     91       BUTH     H9       DUMH      0.00000       1.00800           0   0.00000       0.00000    
     15647 BUTH     91       BUTH     LPO11    LPDO1   -0.287000       0.00000          -1   0.00000       0.00000    
     15648 BUTH     91       BUTH     LPO12    LPDO1   -0.288000       0.00000          -1   0.00000       0.00000    
     15649 BUTH     91       BUTH     LPO21    LPD     -0.302000       0.00000          -1   0.00000       0.00000    
     15650 BUTH     91       BUTH     LPO22    LPD     -0.303000       0.00000          -1   0.00000       0.00000    
     15651 BUTH     92       BUTH     C1       CD33A     2.05990       11.6110           0  -1.81190       1.18670    
     15652 BUTH     92       BUTH     DC1      DRUD     -2.33590      0.400000           0   0.00000       0.00000    
     15653 BUTH     92       BUTH     C2       CD32A     2.02070       11.6110           0  -1.59660       1.16930    
     15654 BUTH     92       BUTH     DC2      DRUD     -2.19270      0.400000           0   0.00000       0.00000    
     15655 BUTH     92       BUTH     C3       CD32A     1.98270       11.6110           0  -1.59660       1.16930    
     15656 BUTH     92       BUTH     DC3      DRUD     -2.19270      0.400000           0   0.00000       0.00000    
     15657 BUTH     92       BUTH     C4       CD2O3A    2.72690       11.6110           0  -1.26130       1.05430    
     15658 BUTH     92       BUTH     DC4      DRUD     -1.94890      0.400000           0   0.00000       0.00000    
     15659 BUTH     92       BUTH     O1       OD2C1A    1.46540       15.5994           0 -0.713100      0.569800    
     15660 BUTH     92       BUTH     DO1      DRUD     -1.46540      0.400000           0   0.00000       0.00000    
     15661 BUTH     92       BUTH     O2       OD31A     1.58240       15.5990           0 -0.831500      0.749400    
     15662 BUTH     92       BUTH     DO2      DRUD     -1.58240      0.400000           0   0.00000       0.00000    
     15663 BUTH     92       BUTH     H1       HDA3A    0.900000E-01   1.00800           0   0.00000       0.00000    
     15664 BUTH     92       BUTH     H2       HDA3A    0.900000E-01   1.00800           0   0.00000       0.00000    
     15665 BUTH     92       BUTH     H3       HDA3A    0.900000E-01   1.00800           0   0.00000       0.00000    
     15666 BUTH     92       BUTH     H4       HDA2A    0.900000E-01   1.00800           0   0.00000       0.00000    
     15667 BUTH     92       BUTH     H5       HDA2A    0.900000E-01   1.00800           0   0.00000       0.00000    
     15668 BUTH     92       BUTH     H6       HDA2A    0.900000E-01   1.00800           0   0.00000       0.00000    
     15669 BUTH     92       BUTH     H7       HDA2A    0.900000E-01   1.00800           0   0.00000       0.00000    
     15670 BUTH     92       BUTH     H8       HDP1A    0.430000       1.00800           0   0.00000       0.00000    
     15671 BUTH     92       BUTH     H9       DUMH      0.00000       1.00800           0   0.00000       0.00000    
     15672 BUTH     92       BUTH     LPO11    LPDO1   -0.287000       0.00000          -1   0.00000       0.00000    
     15673 BUTH     92       BUTH     LPO12    LPDO1   -0.288000       0.00000          -1   0.00000       0.00000    
     15674 BUTH     92       BUTH     LPO21    LPD     -0.302000       0.00000          -1   0.00000       0.00000    
     15675 BUTH     92       BUTH     LPO22    LPD     -0.303000       0.00000          -1   0.00000       0.00000    
     15676 BUTH     93       BUTH     C1       CD33A     2.05990       11.6110           0  -1.81190       1.18670    
     15677 BUTH     93       BUTH     DC1      DRUD     -2.33590      0.400000           0   0.00000       0.00000    
     15678 BUTH     93       BUTH     C2       CD32A     2.02070       11.6110           0  -1.59660       1.16930    
     15679 BUTH     93       BUTH     DC2      DRUD     -2.19270      0.400000           0   0.00000       0.00000    
     15680 BUTH     93       BUTH     C3       CD32A     1.98270       11.6110           0  -1.59660       1.16930    
     15681 BUTH     93       BUTH     DC3      DRUD     -2.19270      0.400000           0   0.00000       0.00000    
     15682 BUTH     93       BUTH     C4       CD2O3A    2.72690       11.6110           0  -1.26130       1.05430    
     15683 BUTH     93       BUTH     DC4      DRUD     -1.94890      0.400000           0   0.00000       0.00000    
     15684 BUTH     93       BUTH     O1       OD2C1A    1.46540       15.5994           0 -0.713100      0.569800    
     15685 BUTH     93       BUTH     DO1      DRUD     -1.46540      0.400000           0   0.00000       0.00000    
     15686 BUTH     93       BUTH     O2       OD31A     1.58240       15.5990           0 -0.831500      0.749400    
     15687 BUTH     93       BUTH     DO2      DRUD     -1.58240      0.400000           0   0.00000       0.00000    
     15688 BUTH     93       BUTH     H1       HDA3A    0.900000E-01   1.00800           0   0.00000       0.00000    
     15689 BUTH     93       BUTH     H2       HDA3A    0.900000E-01   1.00800           0   0.00000       0.00000    
     15690 BUTH     93       BUTH     H3       HDA3A    0.900000E-01   1.00800           0   0.00000       0.00000    
     15691 BUTH     93       BUTH     H4       HDA2A    0.900000E-01   1.00800           0   0.00000       0.00000    
     15692 BUTH     93       BUTH     H5       HDA2A    0.900000E-01   1.00800           0   0.00000       0.00000    
     15693 BUTH     93       BUTH     H6       HDA2A    0.900000E-01   1.00800           0   0.00000       0.00000    
     15694 BUTH     93       BUTH     H7       HDA2A    0.900000E-01   1.00800           0   0.00000       0.00000    
     15695 BUTH     93       BUTH     H8       HDP1A    0.430000       1.00800           0   0.00000       0.00000    
     15696 BUTH     93       BUTH     H9       DUMH      0.00000       1.00800           0   0.00000       0.00000    
     15697 BUTH     93       BUTH     LPO11    LPDO1   -0.287000       0.00000          -1   0.00000       0.00000    
     15698 BUTH     93       BUTH     LPO12    LPDO1   -0.288000       0.00000          -1   0.00000       0.00000    
     15699 BUTH     93       BUTH     LPO21    LPD     -0.302000       0.00000          -1   0.00000       0.00000    
     15700 BUTH     93       BUTH     LPO22    LPD     -0.303000       0.00000          -1   0.00000       0.00000    
     15701 BUTH     94       BUTH     C1       CD33A     2.05990       11.6110           0  -1.81190       1.18670    
     15702 BUTH     94       BUTH     DC1      DRUD     -2.33590      0.400000           0   0.00000       0.00000    
     15703 BUTH     94       BUTH     C2       CD32A     2.02070       11.6110           0  -1.59660       1.16930    
     15704 BUTH     94       BUTH     DC2      DRUD     -2.19270      0.400000           0   0.00000       0.00000    
     15705 BUTH     94       BUTH     C3       CD32A     1.98270       11.6110           0  -1.59660       1.16930    
     15706 BUTH     94       BUTH     DC3      DRUD     -2.19270      0.400000           0   0.00000       0.00000    
     15707 BUTH     94       BUTH     C4       CD2O3A    2.72690       11.6110           0  -1.26130       1.05430    
     15708 BUTH     94       BUTH     DC4      DRUD     -1.94890      0.400000           0   0.00000       0.00000    
     15709 BUTH     94       BUTH     O1       OD2C1A    1.46540       15.5994           0 -0.713100      0.569800    
     15710 BUTH     94       BUTH     DO1      DRUD     -1.46540      0.400000           0   0.00000       0.00000    
     15711 BUTH     94       BUTH     O2       OD31A     1.58240       15.5990           0 -0.831500      0.749400    
     15712 BUTH     94       BUTH     DO2      DRUD     -1.58240      0.400000           0   0.00000       0.00000    
     15713 BUTH     94       BUTH     H1       HDA3A    0.900000E-01   1.00800           0   0.00000       0.00000    
     15714 BUTH     94       BUTH     H2       HDA3A    0.900000E-01   1.00800           0   0.00000       0.00000    
     15715 BUTH     94       BUTH     H3       HDA3A    0.900000E-01   1.00800           0   0.00000       0.00000    
     15716 BUTH     94       BUTH     H4       HDA2A    0.900000E-01   1.00800           0   0.00000       0.00000    
     15717 BUTH     94       BUTH     H5       HDA2A    0.900000E-01   1.00800           0   0.00000       0.00000    
     15718 BUTH     94       BUTH     H6       HDA2A    0.900000E-01   1.00800           0   0.00000       0.00000    
     15719 BUTH     94       BUTH     H7       HDA2A    0.900000E-01   1.00800           0   0.00000       0.00000    
     15720 BUTH     94       BUTH     H8       HDP1A    0.430000       1.00800           0   0.00000       0.00000    
     15721 BUTH     94       BUTH     H9       DUMH      0.00000       1.00800           0   0.00000       0.00000    
     15722 BUTH     94       BUTH     LPO11    LPDO1   -0.287000       0.00000          -1   0.00000       0.00000    
     15723 BUTH     94       BUTH     LPO12    LPDO1   -0.288000       0.00000          -1   0.00000       0.00000    
     15724 BUTH     94       BUTH     LPO21    LPD     -0.302000       0.00000          -1   0.00000       0.00000    
     15725 BUTH     94       BUTH     LPO22    LPD     -0.303000       0.00000          -1   0.00000       0.00000    
     15726 BUTH     95       BUTH     C1       CD33A     2.05990       11.6110           0  -1.81190       1.18670    
     15727 BUTH     95       BUTH     DC1      DRUD     -2.33590      0.400000           0   0.00000       0.00000    
     15728 BUTH     95       BUTH     C2       CD32A     2.02070       11.6110           0  -1.59660       1.16930    
     15729 BUTH     95       BUTH     DC2      DRUD     -2.19270      0.400000           0   0.00000       0.00000    
     15730 BUTH     95       BUTH     C3       CD32A     1.98270       11.6110           0  -1.59660       1.16930    
     15731 BUTH     95       BUTH     DC3      DRUD     -2.19270      0.400000           0   0.00000       0.00000    
     15732 BUTH     95       BUTH     C4       CD2O3A    2.72690       11.6110           0  -1.26130       1.05430    
     15733 BUTH     95       BUTH     DC4      DRUD     -1.94890      0.400000           0   0.00000       0.00000    
     15734 BUTH     95       BUTH     O1       OD2C1A    1.46540       15.5994           0 -0.713100      0.569800    
     15735 BUTH     95       BUTH     DO1      DRUD     -1.46540      0.400000           0   0.00000       0.00000    
     15736 BUTH     95       BUTH     O2       OD31A     1.58240       15.5990           0 -0.831500      0.749400    
     15737 BUTH     95       BUTH     DO2      DRUD     -1.58240      0.400000           0   0.00000       0.00000    
     15738 BUTH     95       BUTH     H1       HDA3A    0.900000E-01   1.00800           0   0.00000       0.00000    
     15739 BUTH     95       BUTH     H2       HDA3A    0.900000E-01   1.00800           0   0.00000       0.00000    
     15740 BUTH     95       BUTH     H3       HDA3A    0.900000E-01   1.00800           0   0.00000       0.00000    
     15741 BUTH     95       BUTH     H4       HDA2A    0.900000E-01   1.00800           0   0.00000       0.00000    
     15742 BUTH     95       BUTH     H5       HDA2A    0.900000E-01   1.00800           0   0.00000       0.00000    
     15743 BUTH     95       BUTH     H6       HDA2A    0.900000E-01   1.00800           0   0.00000       0.00000    
     15744 BUTH     95       BUTH     H7       HDA2A    0.900000E-01   1.00800           0   0.00000       0.00000    
     15745 BUTH     95       BUTH     H8       HDP1A    0.430000       1.00800           0   0.00000       0.00000    
     15746 BUTH     95       BUTH     H9       DUMH      0.00000       1.00800           0   0.00000       0.00000    
     15747 BUTH     95       BUTH     LPO11    LPDO1   -0.287000       0.00000          -1   0.00000       0.00000    
     15748 BUTH     95       BUTH     LPO12    LPDO1   -0.288000       0.00000          -1   0.00000       0.00000    
     15749 BUTH     95       BUTH     LPO21    LPD     -0.302000       0.00000          -1   0.00000       0.00000    
     15750 BUTH     95       BUTH     LPO22    LPD     -0.303000       0.00000          -1   0.00000       0.00000    
     15751 BUTH     96       BUTH     C1       CD33A     2.05990       11.6110           0  -1.81190       1.18670    
     15752 BUTH     96       BUTH     DC1      DRUD     -2.33590      0.400000           0   0.00000       0.00000    
     15753 BUTH     96       BUTH     C2       CD32A     2.02070       11.6110           0  -1.59660       1.16930    
     15754 BUTH     96       BUTH     DC2      DRUD     -2.19270      0.400000           0   0.00000       0.00000    
     15755 BUTH     96       BUTH     C3       CD32A     1.98270       11.6110           0  -1.59660       1.16930    
     15756 BUTH     96       BUTH     DC3      DRUD     -2.19270      0.400000           0   0.00000       0.00000    
     15757 BUTH     96       BUTH     C4       CD2O3A    2.72690       11.6110           0  -1.26130       1.05430    
     15758 BUTH     96       BUTH     DC4      DRUD     -1.94890      0.400000           0   0.00000       0.00000    
     15759 BUTH     96       BUTH     O1       OD2C1A    1.46540       15.5994           0 -0.713100      0.569800    
     15760 BUTH     96       BUTH     DO1      DRUD     -1.46540      0.400000           0   0.00000       0.00000    
     15761 BUTH     96       BUTH     O2       OD31A     1.58240       15.5990           0 -0.831500      0.749400    
     15762 BUTH     96       BUTH     DO2      DRUD     -1.58240      0.400000           0   0.00000       0.00000    
     15763 BUTH     96       BUTH     H1       HDA3A    0.900000E-01   1.00800           0   0.00000       0.00000    
     15764 BUTH     96       BUTH     H2       HDA3A    0.900000E-01   1.00800           0   0.00000       0.00000    
     15765 BUTH     96       BUTH     H3       HDA3A    0.900000E-01   1.00800           0   0.00000       0.00000    
     15766 BUTH     96       BUTH     H4       HDA2A    0.900000E-01   1.00800           0   0.00000       0.00000    
     15767 BUTH     96       BUTH     H5       HDA2A    0.900000E-01   1.00800           0   0.00000       0.00000    
     15768 BUTH     96       BUTH     H6       HDA2A    0.900000E-01   1.00800           0   0.00000       0.00000    
     15769 BUTH     96       BUTH     H7       HDA2A    0.900000E-01   1.00800           0   0.00000       0.00000    
     15770 BUTH     96       BUTH     H8       HDP1A    0.430000       1.00800           0   0.00000       0.00000    
     15771 BUTH     96       BUTH     H9       DUMH      0.00000       1.00800           0   0.00000       0.00000    
     15772 BUTH     96       BUTH     LPO11    LPDO1   -0.287000       0.00000          -1   0.00000       0.00000    
     15773 BUTH     96       BUTH     LPO12    LPDO1   -0.288000       0.00000          -1   0.00000       0.00000    
     15774 BUTH     96       BUTH     LPO21    LPD     -0.302000       0.00000          -1   0.00000       0.00000    
     15775 BUTH     96       BUTH     LPO22    LPD     -0.303000       0.00000          -1   0.00000       0.00000    
     15776 BUTH     97       BUTH     C1       CD33A     2.05990       11.6110           0  -1.81190       1.18670    
     15777 BUTH     97       BUTH     DC1      DRUD     -2.33590      0.400000           0   0.00000       0.00000    
     15778 BUTH     97       BUTH     C2       CD32A     2.02070       11.6110           0  -1.59660       1.16930    
     15779 BUTH     97       BUTH     DC2      DRUD     -2.19270      0.400000           0   0.00000       0.00000    
     15780 BUTH     97       BUTH     C3       CD32A     1.98270       11.6110           0  -1.59660       1.16930    
     15781 BUTH     97       BUTH     DC3      DRUD     -2.19270      0.400000           0   0.00000       0.00000    
     15782 BUTH     97       BUTH     C4       CD2O3A    2.72690       11.6110           0  -1.26130       1.05430    
     15783 BUTH     97       BUTH     DC4      DRUD     -1.94890      0.400000           0   0.00000       0.00000    
     15784 BUTH     97       BUTH     O1       OD2C1A    1.46540       15.5994           0 -0.713100      0.569800    
     15785 BUTH     97       BUTH     DO1      DRUD     -1.46540      0.400000           0   0.00000       0.00000    
     15786 BUTH     97       BUTH     O2       OD31A     1.58240       15.5990           0 -0.831500      0.749400    
     15787 BUTH     97       BUTH     DO2      DRUD     -1.58240      0.400000           0   0.00000       0.00000    
     15788 BUTH     97       BUTH     H1       HDA3A    0.900000E-01   1.00800           0   0.00000       0.00000    
     15789 BUTH     97       BUTH     H2       HDA3A    0.900000E-01   1.00800           0   0.00000       0.00000    
     15790 BUTH     97       BUTH     H3       HDA3A    0.900000E-01   1.00800           0   0.00000       0.00000    
     15791 BUTH     97       BUTH     H4       HDA2A    0.900000E-01   1.00800           0   0.00000       0.00000    
     15792 BUTH     97       BUTH     H5       HDA2A    0.900000E-01   1.00800           0   0.00000       0.00000    
     15793 BUTH     97       BUTH     H6       HDA2A    0.900000E-01   1.00800           0   0.00000       0.00000    
     15794 BUTH     97       BUTH     H7       HDA2A    0.900000E-01   1.00800           0   0.00000       0.00000    
     15795 BUTH     97       BUTH     H8       HDP1A    0.430000       1.00800           0   0.00000       0.00000    
     15796 BUTH     97       BUTH     H9       DUMH      0.00000       1.00800           0   0.00000       0.00000    
     15797 BUTH     97       BUTH     LPO11    LPDO1   -0.287000       0.00000          -1   0.00000       0.00000    
     15798 BUTH     97       BUTH     LPO12    LPDO1   -0.288000       0.00000          -1   0.00000       0.00000    
     15799 BUTH     97       BUTH     LPO21    LPD     -0.302000       0.00000          -1   0.00000       0.00000    
     15800 BUTH     97       BUTH     LPO22    LPD     -0.303000       0.00000          -1   0.00000       0.00000    
     15801 BUTH     98       BUTH     C1       CD33A     2.05990       11.6110           0  -1.81190       1.18670    
     15802 BUTH     98       BUTH     DC1      DRUD     -2.33590      0.400000           0   0.00000       0.00000    
     15803 BUTH     98       BUTH     C2       CD32A     2.02070       11.6110           0  -1.59660       1.16930    
     15804 BUTH     98       BUTH     DC2      DRUD     -2.19270      0.400000           0   0.00000       0.00000    
     15805 BUTH     98       BUTH     C3       CD32A     1.98270       11.6110           0  -1.59660       1.16930    
     15806 BUTH     98       BUTH     DC3      DRUD     -2.19270      0.400000           0   0.00000       0.00000    
     15807 BUTH     98       BUTH     C4       CD2O3A    2.72690       11.6110           0  -1.26130       1.05430    
     15808 BUTH     98       BUTH     DC4      DRUD     -1.94890      0.400000           0   0.00000       0.00000    
     15809 BUTH     98       BUTH     O1       OD2C1A    1.46540       15.5994           0 -0.713100      0.569800    
     15810 BUTH     98       BUTH     DO1      DRUD     -1.46540      0.400000           0   0.00000       0.00000    
     15811 BUTH     98       BUTH     O2       OD31A     1.58240       15.5990           0 -0.831500      0.749400    
     15812 BUTH     98       BUTH     DO2      DRUD     -1.58240      0.400000           0   0.00000       0.00000    
     15813 BUTH     98       BUTH     H1       HDA3A    0.900000E-01   1.00800           0   0.00000       0.00000    
     15814 BUTH     98       BUTH     H2       HDA3A    0.900000E-01   1.00800           0   0.00000       0.00000    
     15815 BUTH     98       BUTH     H3       HDA3A    0.900000E-01   1.00800           0   0.00000       0.00000    
     15816 BUTH     98       BUTH     H4       HDA2A    0.900000E-01   1.00800           0   0.00000       0.00000    
     15817 BUTH     98       BUTH     H5       HDA2A    0.900000E-01   1.00800           0   0.00000       0.00000    
     15818 BUTH     98       BUTH     H6       HDA2A    0.900000E-01   1.00800           0   0.00000       0.00000    
     15819 BUTH     98       BUTH     H7       HDA2A    0.900000E-01   1.00800           0   0.00000       0.00000    
     15820 BUTH     98       BUTH     H8       HDP1A    0.430000       1.00800           0   0.00000       0.00000    
     15821 BUTH     98       BUTH     H9       DUMH      0.00000       1.00800           0   0.00000       0.00000    
     15822 BUTH     98       BUTH     LPO11    LPDO1   -0.287000       0.00000          -1   0.00000       0.00000    
     15823 BUTH     98       BUTH     LPO12    LPDO1   -0.288000       0.00000          -1   0.00000       0.00000    
     15824 BUTH     98       BUTH     LPO21    LPD     -0.302000       0.00000          -1   0.00000       0.00000    
     15825 BUTH     98       BUTH     LPO22    LPD     -0.303000       0.00000          -1   0.00000       0.00000    
     15826 BUTH     99       BUTH     C1       CD33A     2.05990       11.6110           0  -1.81190       1.18670    
     15827 BUTH     99       BUTH     DC1      DRUD     -2.33590      0.400000           0   0.00000       0.00000    
     15828 BUTH     99       BUTH     C2       CD32A     2.02070       11.6110           0  -1.59660       1.16930    
     15829 BUTH     99       BUTH     DC2      DRUD     -2.19270      0.400000           0   0.00000       0.00000    
     15830 BUTH     99       BUTH     C3       CD32A     1.98270       11.6110           0  -1.59660       1.16930    
     15831 BUTH     99       BUTH     DC3      DRUD     -2.19270      0.400000           0   0.00000       0.00000    
     15832 BUTH     99       BUTH     C4       CD2O3A    2.72690       11.6110           0  -1.26130       1.05430    
     15833 BUTH     99       BUTH     DC4      DRUD     -1.94890      0.400000           0   0.00000       0.00000    
     15834 BUTH     99       BUTH     O1       OD2C1A    1.46540       15.5994           0 -0.713100      0.569800    
     15835 BUTH     99       BUTH     DO1      DRUD     -1.46540      0.400000           0   0.00000       0.00000    
     15836 BUTH     99       BUTH     O2       OD31A     1.58240       15.5990           0 -0.831500      0.749400    
     15837 BUTH     99       BUTH     DO2      DRUD     -1.58240      0.400000           0   0.00000       0.00000    
     15838 BUTH     99       BUTH     H1       HDA3A    0.900000E-01   1.00800           0   0.00000       0.00000    
     15839 BUTH     99       BUTH     H2       HDA3A    0.900000E-01   1.00800           0   0.00000       0.00000    
     15840 BUTH     99       BUTH     H3       HDA3A    0.900000E-01   1.00800           0   0.00000       0.00000    
     15841 BUTH     99       BUTH     H4       HDA2A    0.900000E-01   1.00800           0   0.00000       0.00000    
     15842 BUTH     99       BUTH     H5       HDA2A    0.900000E-01   1.00800           0   0.00000       0.00000    
     15843 BUTH     99       BUTH     H6       HDA2A    0.900000E-01   1.00800           0   0.00000       0.00000    
     15844 BUTH     99       BUTH     H7       HDA2A    0.900000E-01   1.00800           0   0.00000       0.00000    
     15845 BUTH     99       BUTH     H8       HDP1A    0.430000       1.00800           0   0.00000       0.00000    
     15846 BUTH     99       BUTH     H9       DUMH      0.00000       1.00800           0   0.00000       0.00000    
     15847 BUTH     99       BUTH     LPO11    LPDO1   -0.287000       0.00000          -1   0.00000       0.00000    
     15848 BUTH     99       BUTH     LPO12    LPDO1   -0.288000       0.00000          -1   0.00000       0.00000    
     15849 BUTH     99       BUTH     LPO21    LPD     -0.302000       0.00000          -1   0.00000       0.00000    
     15850 BUTH     99       BUTH     LPO22    LPD     -0.303000       0.00000          -1   0.00000       0.00000    
     15851 BUTH     100      BUTH     C1       CD33A     2.05990       11.6110           0  -1.81190       1.18670    
     15852 BUTH     100      BUTH     DC1      DRUD     -2.33590      0.400000           0   0.00000       0.00000    
     15853 BUTH     100      BUTH     C2       CD32A     2.02070       11.6110           0  -1.59660       1.16930    
     15854 BUTH     100      BUTH     DC2      DRUD     -2.19270      0.400000           0   0.00000       0.00000    
     15855 BUTH     100      BUTH     C3       CD32A     1.98270       11.6110           0  -1.59660       1.16930    
     15856 BUTH     100      BUTH     DC3      DRUD     -2.19270      0.400000           0   0.00000       0.00000    
     15857 BUTH     100      BUTH     C4       CD2O3A    2.72690       11.6110           0  -1.26130       1.05430    
     15858 BUTH     100      BUTH     DC4      DRUD     -1.94890      0.400000           0   0.00000       0.00000    
     15859 BUTH     100      BUTH     O1       OD2C1A    1.46540       15.5994           0 -0.713100      0.569800    
     15860 BUTH     100      BUTH     DO1      DRUD     -1.46540      0.400000           0   0.00000       0.00000    
     15861 BUTH     100      BUTH     O2       OD31A     1.58240       15.5990           0 -0.831500      0.749400    
     15862 BUTH     100      BUTH     DO2      DRUD     -1.58240      0.400000           0   0.00000       0.00000    
     15863 BUTH     100      BUTH     H1       HDA3A    0.900000E-01   1.00800           0   0.00000       0.00000    
     15864 BUTH     100      BUTH     H2       HDA3A    0.900000E-01   1.00800           0   0.00000       0.00000    
     15865 BUTH     100      BUTH     H3       HDA3A    0.900000E-01   1.00800           0   0.00000       0.00000    
     15866 BUTH     100      BUTH     H4       HDA2A    0.900000E-01   1.00800           0   0.00000       0.00000    
     15867 BUTH     100      BUTH     H5       HDA2A    0.900000E-01   1.00800           0   0.00000       0.00000    
     15868 BUTH     100      BUTH     H6       HDA2A    0.900000E-01   1.00800           0   0.00000       0.00000    
     15869 BUTH     100      BUTH     H7       HDA2A    0.900000E-01   1.00800           0   0.00000       0.00000    
     15870 BUTH     100      BUTH     H8       HDP1A    0.430000       1.00800           0   0.00000       0.00000    
     15871 BUTH     100      BUTH     H9       DUMH      0.00000       1.00800           0   0.00000       0.00000    
     15872 BUTH     100      BUTH     LPO11    LPDO1   -0.287000       0.00000          -1   0.00000       0.00000    
     15873 BUTH     100      BUTH     LPO12    LPDO1   -0.288000       0.00000          -1   0.00000       0.00000    
     15874 BUTH     100      BUTH     LPO21    LPD     -0.302000       0.00000          -1   0.00000       0.00000    
     15875 BUTH     100      BUTH     LPO22    LPD     -0.303000       0.00000          -1   0.00000       0.00000    
     15876 BUTH     101      BUTH     C1       CD33A     2.05990       11.6110           0  -1.81190       1.18670    
     15877 BUTH     101      BUTH     DC1      DRUD     -2.33590      0.400000           0   0.00000       0.00000    
     15878 BUTH     101      BUTH     C2       CD32A     2.02070       11.6110           0  -1.59660       1.16930    
     15879 BUTH     101      BUTH     DC2      DRUD     -2.19270      0.400000           0   0.00000       0.00000    
     15880 BUTH     101      BUTH     C3       CD32A     1.98270       11.6110           0  -1.59660       1.16930    
     15881 BUTH     101      BUTH     DC3      DRUD     -2.19270      0.400000           0   0.00000       0.00000    
     15882 BUTH     101      BUTH     C4       CD2O3A    2.72690       11.6110           0  -1.26130       1.05430    
     15883 BUTH     101      BUTH     DC4      DRUD     -1.94890      0.400000           0   0.00000       0.00000    
     15884 BUTH     101      BUTH     O1       OD2C1A    1.46540       15.5994           0 -0.713100      0.569800    
     15885 BUTH     101      BUTH     DO1      DRUD     -1.46540      0.400000           0   0.00000       0.00000    
     15886 BUTH     101      BUTH     O2       OD31A     1.58240       15.5990           0 -0.831500      0.749400    
     15887 BUTH     101      BUTH     DO2      DRUD     -1.58240      0.400000           0   0.00000       0.00000    
     15888 BUTH     101      BUTH     H1       HDA3A    0.900000E-01   1.00800           0   0.00000       0.00000    
     15889 BUTH     101      BUTH     H2       HDA3A    0.900000E-01   1.00800           0   0.00000       0.00000    
     15890 BUTH     101      BUTH     H3       HDA3A    0.900000E-01   1.00800           0   0.00000       0.00000    
     15891 BUTH     101      BUTH     H4       HDA2A    0.900000E-01   1.00800           0   0.00000       0.00000    
     15892 BUTH     101      BUTH     H5       HDA2A    0.900000E-01   1.00800           0   0.00000       0.00000    
     15893 BUTH     101      BUTH     H6       HDA2A    0.900000E-01   1.00800           0   0.00000       0.00000    
     15894 BUTH     101      BUTH     H7       HDA2A    0.900000E-01   1.00800           0   0.00000       0.00000    
     15895 BUTH     101      BUTH     H8       HDP1A    0.430000       1.00800           0   0.00000       0.00000    
     15896 BUTH     101      BUTH     H9       DUMH      0.00000       1.00800           0   0.00000       0.00000    
     15897 BUTH     101      BUTH     LPO11    LPDO1   -0.287000       0.00000          -1   0.00000       0.00000    
     15898 BUTH     101      BUTH     LPO12    LPDO1   -0.288000       0.00000          -1   0.00000       0.00000    
     15899 BUTH     101      BUTH     LPO21    LPD     -0.302000       0.00000          -1   0.00000       0.00000    
     15900 BUTH     101      BUTH     LPO22    LPD     -0.303000       0.00000          -1   0.00000       0.00000    
     15901 BUTH     102      BUTH     C1       CD33A     2.05990       11.6110           0  -1.81190       1.18670    
     15902 BUTH     102      BUTH     DC1      DRUD     -2.33590      0.400000           0   0.00000       0.00000    
     15903 BUTH     102      BUTH     C2       CD32A     2.02070       11.6110           0  -1.59660       1.16930    
     15904 BUTH     102      BUTH     DC2      DRUD     -2.19270      0.400000           0   0.00000       0.00000    
     15905 BUTH     102      BUTH     C3       CD32A     1.98270       11.6110           0  -1.59660       1.16930    
     15906 BUTH     102      BUTH     DC3      DRUD     -2.19270      0.400000           0   0.00000       0.00000    
     15907 BUTH     102      BUTH     C4       CD2O3A    2.72690       11.6110           0  -1.26130       1.05430    
     15908 BUTH     102      BUTH     DC4      DRUD     -1.94890      0.400000           0   0.00000       0.00000    
     15909 BUTH     102      BUTH     O1       OD2C1A    1.46540       15.5994           0 -0.713100      0.569800    
     15910 BUTH     102      BUTH     DO1      DRUD     -1.46540      0.400000           0   0.00000       0.00000    
     15911 BUTH     102      BUTH     O2       OD31A     1.58240       15.5990           0 -0.831500      0.749400    
     15912 BUTH     102      BUTH     DO2      DRUD     -1.58240      0.400000           0   0.00000       0.00000    
     15913 BUTH     102      BUTH     H1       HDA3A    0.900000E-01   1.00800           0   0.00000       0.00000    
     15914 BUTH     102      BUTH     H2       HDA3A    0.900000E-01   1.00800           0   0.00000       0.00000    
     15915 BUTH     102      BUTH     H3       HDA3A    0.900000E-01   1.00800           0   0.00000       0.00000    
     15916 BUTH     102      BUTH     H4       HDA2A    0.900000E-01   1.00800           0   0.00000       0.00000    
     15917 BUTH     102      BUTH     H5       HDA2A    0.900000E-01   1.00800           0   0.00000       0.00000    
     15918 BUTH     102      BUTH     H6       HDA2A    0.900000E-01   1.00800           0   0.00000       0.00000    
     15919 BUTH     102      BUTH     H7       HDA2A    0.900000E-01   1.00800           0   0.00000       0.00000    
     15920 BUTH     102      BUTH     H8       HDP1A    0.430000       1.00800           0   0.00000       0.00000    
     15921 BUTH     102      BUTH     H9       DUMH      0.00000       1.00800           0   0.00000       0.00000    
     15922 BUTH     102      BUTH     LPO11    LPDO1   -0.287000       0.00000          -1   0.00000       0.00000    
     15923 BUTH     102      BUTH     LPO12    LPDO1   -0.288000       0.00000          -1   0.00000       0.00000    
     15924 BUTH     102      BUTH     LPO21    LPD     -0.302000       0.00000          -1   0.00000       0.00000    
     15925 BUTH     102      BUTH     LPO22    LPD     -0.303000       0.00000          -1   0.00000       0.00000    
     15926 BUTH     103      BUTH     C1       CD33A     2.05990       11.6110           0  -1.81190       1.18670    
     15927 BUTH     103      BUTH     DC1      DRUD     -2.33590      0.400000           0   0.00000       0.00000    
     15928 BUTH     103      BUTH     C2       CD32A     2.02070       11.6110           0  -1.59660       1.16930    
     15929 BUTH     103      BUTH     DC2      DRUD     -2.19270      0.400000           0   0.00000       0.00000    
     15930 BUTH     103      BUTH     C3       CD32A     1.98270       11.6110           0  -1.59660       1.16930    
     15931 BUTH     103      BUTH     DC3      DRUD     -2.19270      0.400000           0   0.00000       0.00000    
     15932 BUTH     103      BUTH     C4       CD2O3A    2.72690       11.6110           0  -1.26130       1.05430    
     15933 BUTH     103      BUTH     DC4      DRUD     -1.94890      0.400000           0   0.00000       0.00000    
     15934 BUTH     103      BUTH     O1       OD2C1A    1.46540       15.5994           0 -0.713100      0.569800    
     15935 BUTH     103      BUTH     DO1      DRUD     -1.46540      0.400000           0   0.00000       0.00000    
     15936 BUTH     103      BUTH     O2       OD31A     1.58240       15.5990           0 -0.831500      0.749400    
     15937 BUTH     103      BUTH     DO2      DRUD     -1.58240      0.400000           0   0.00000       0.00000    
     15938 BUTH     103      BUTH     H1       HDA3A    0.900000E-01   1.00800           0   0.00000       0.00000    
     15939 BUTH     103      BUTH     H2       HDA3A    0.900000E-01   1.00800           0   0.00000       0.00000    
     15940 BUTH     103      BUTH     H3       HDA3A    0.900000E-01   1.00800           0   0.00000       0.00000    
     15941 BUTH     103      BUTH     H4       HDA2A    0.900000E-01   1.00800           0   0.00000       0.00000    
     15942 BUTH     103      BUTH     H5       HDA2A    0.900000E-01   1.00800           0   0.00000       0.00000    
     15943 BUTH     103      BUTH     H6       HDA2A    0.900000E-01   1.00800           0   0.00000       0.00000    
     15944 BUTH     103      BUTH     H7       HDA2A    0.900000E-01   1.00800           0   0.00000       0.00000    
     15945 BUTH     103      BUTH     H8       HDP1A    0.430000       1.00800           0   0.00000       0.00000    
     15946 BUTH     103      BUTH     H9       DUMH      0.00000       1.00800           0   0.00000       0.00000    
     15947 BUTH     103      BUTH     LPO11    LPDO1   -0.287000       0.00000          -1   0.00000       0.00000    
     15948 BUTH     103      BUTH     LPO12    LPDO1   -0.288000       0.00000          -1   0.00000       0.00000    
     15949 BUTH     103      BUTH     LPO21    LPD     -0.302000       0.00000          -1   0.00000       0.00000    
     15950 BUTH     103      BUTH     LPO22    LPD     -0.303000       0.00000          -1   0.00000       0.00000    
     15951 BUTH     104      BUTH     C1       CD33A     2.05990       11.6110           0  -1.81190       1.18670    
     15952 BUTH     104      BUTH     DC1      DRUD     -2.33590      0.400000           0   0.00000       0.00000    
     15953 BUTH     104      BUTH     C2       CD32A     2.02070       11.6110           0  -1.59660       1.16930    
     15954 BUTH     104      BUTH     DC2      DRUD     -2.19270      0.400000           0   0.00000       0.00000    
     15955 BUTH     104      BUTH     C3       CD32A     1.98270       11.6110           0  -1.59660       1.16930    
     15956 BUTH     104      BUTH     DC3      DRUD     -2.19270      0.400000           0   0.00000       0.00000    
     15957 BUTH     104      BUTH     C4       CD2O3A    2.72690       11.6110           0  -1.26130       1.05430    
     15958 BUTH     104      BUTH     DC4      DRUD     -1.94890      0.400000           0   0.00000       0.00000    
     15959 BUTH     104      BUTH     O1       OD2C1A    1.46540       15.5994           0 -0.713100      0.569800    
     15960 BUTH     104      BUTH     DO1      DRUD     -1.46540      0.400000           0   0.00000       0.00000    
     15961 BUTH     104      BUTH     O2       OD31A     1.58240       15.5990           0 -0.831500      0.749400    
     15962 BUTH     104      BUTH     DO2      DRUD     -1.58240      0.400000           0   0.00000       0.00000    
     15963 BUTH     104      BUTH     H1       HDA3A    0.900000E-01   1.00800           0   0.00000       0.00000    
     15964 BUTH     104      BUTH     H2       HDA3A    0.900000E-01   1.00800           0   0.00000       0.00000    
     15965 BUTH     104      BUTH     H3       HDA3A    0.900000E-01   1.00800           0   0.00000       0.00000    
     15966 BUTH     104      BUTH     H4       HDA2A    0.900000E-01   1.00800           0   0.00000       0.00000    
     15967 BUTH     104      BUTH     H5       HDA2A    0.900000E-01   1.00800           0   0.00000       0.00000    
     15968 BUTH     104      BUTH     H6       HDA2A    0.900000E-01   1.00800           0   0.00000       0.00000    
     15969 BUTH     104      BUTH     H7       HDA2A    0.900000E-01   1.00800           0   0.00000       0.00000    
     15970 BUTH     104      BUTH     H8       HDP1A    0.430000       1.00800           0   0.00000       0.00000    
     15971 BUTH     104      BUTH     H9       DUMH      0.00000       1.00800           0   0.00000       0.00000    
     15972 BUTH     104      BUTH     LPO11    LPDO1   -0.287000       0.00000          -1   0.00000       0.00000    
     15973 BUTH     104      BUTH     LPO12    LPDO1   -0.288000       0.00000          -1   0.00000       0.00000    
     15974 BUTH     104      BUTH     LPO21    LPD     -0.302000       0.00000          -1   0.00000       0.00000    
     15975 BUTH     104      BUTH     LPO22    LPD     -0.303000       0.00000          -1   0.00000       0.00000    
     15976 BUTH     105      BUTH     C1       CD33A     2.05990       11.6110           0  -1.81190       1.18670    
     15977 BUTH     105      BUTH     DC1      DRUD     -2.33590      0.400000           0   0.00000       0.00000    
     15978 BUTH     105      BUTH     C2       CD32A     2.02070       11.6110           0  -1.59660       1.16930    
     15979 BUTH     105      BUTH     DC2      DRUD     -2.19270      0.400000           0   0.00000       0.00000    
     15980 BUTH     105      BUTH     C3       CD32A     1.98270       11.6110           0  -1.59660       1.16930    
     15981 BUTH     105      BUTH     DC3      DRUD     -2.19270      0.400000           0   0.00000       0.00000    
     15982 BUTH     105      BUTH     C4       CD2O3A    2.72690       11.6110           0  -1.26130       1.05430    
     15983 BUTH     105      BUTH     DC4      DRUD     -1.94890      0.400000           0   0.00000       0.00000    
     15984 BUTH     105      BUTH     O1       OD2C1A    1.46540       15.5994           0 -0.713100      0.569800    
     15985 BUTH     105      BUTH     DO1      DRUD     -1.46540      0.400000           0   0.00000       0.00000    
     15986 BUTH     105      BUTH     O2       OD31A     1.58240       15.5990           0 -0.831500      0.749400    
     15987 BUTH     105      BUTH     DO2      DRUD     -1.58240      0.400000           0   0.00000       0.00000    
     15988 BUTH     105      BUTH     H1       HDA3A    0.900000E-01   1.00800           0   0.00000       0.00000    
     15989 BUTH     105      BUTH     H2       HDA3A    0.900000E-01   1.00800           0   0.00000       0.00000    
     15990 BUTH     105      BUTH     H3       HDA3A    0.900000E-01   1.00800           0   0.00000       0.00000    
     15991 BUTH     105      BUTH     H4       HDA2A    0.900000E-01   1.00800           0   0.00000       0.00000    
     15992 BUTH     105      BUTH     H5       HDA2A    0.900000E-01   1.00800           0   0.00000       0.00000    
     15993 BUTH     105      BUTH     H6       HDA2A    0.900000E-01   1.00800           0   0.00000       0.00000    
     15994 BUTH     105      BUTH     H7       HDA2A    0.900000E-01   1.00800           0   0.00000       0.00000    
     15995 BUTH     105      BUTH     H8       HDP1A    0.430000       1.00800           0   0.00000       0.00000    
     15996 BUTH     105      BUTH     H9       DUMH      0.00000       1.00800           0   0.00000       0.00000    
     15997 BUTH     105      BUTH     LPO11    LPDO1   -0.287000       0.00000          -1   0.00000       0.00000    
     15998 BUTH     105      BUTH     LPO12    LPDO1   -0.288000       0.00000          -1   0.00000       0.00000    
     15999 BUTH     105      BUTH     LPO21    LPD     -0.302000       0.00000          -1   0.00000       0.00000    
     16000 BUTH     105      BUTH     LPO22    LPD     -0.303000       0.00000          -1   0.00000       0.00000    
     16001 BUTH     106      BUTH     C1       CD33A     2.05990       11.6110           0  -1.81190       1.18670    
     16002 BUTH     106      BUTH     DC1      DRUD     -2.33590      0.400000           0   0.00000       0.00000    
     16003 BUTH     106      BUTH     C2       CD32A     2.02070       11.6110           0  -1.59660       1.16930    
     16004 BUTH     106      BUTH     DC2      DRUD     -2.19270      0.400000           0   0.00000       0.00000    
     16005 BUTH     106      BUTH     C3       CD32A     1.98270       11.6110           0  -1.59660       1.16930    
     16006 BUTH     106      BUTH     DC3      DRUD     -2.19270      0.400000           0   0.00000       0.00000    
     16007 BUTH     106      BUTH     C4       CD2O3A    2.72690       11.6110           0  -1.26130       1.05430    
     16008 BUTH     106      BUTH     DC4      DRUD     -1.94890      0.400000           0   0.00000       0.00000    
     16009 BUTH     106      BUTH     O1       OD2C1A    1.46540       15.5994           0 -0.713100      0.569800    
     16010 BUTH     106      BUTH     DO1      DRUD     -1.46540      0.400000           0   0.00000       0.00000    
     16011 BUTH     106      BUTH     O2       OD31A     1.58240       15.5990           0 -0.831500      0.749400    
     16012 BUTH     106      BUTH     DO2      DRUD     -1.58240      0.400000           0   0.00000       0.00000    
     16013 BUTH     106      BUTH     H1       HDA3A    0.900000E-01   1.00800           0   0.00000       0.00000    
     16014 BUTH     106      BUTH     H2       HDA3A    0.900000E-01   1.00800           0   0.00000       0.00000    
     16015 BUTH     106      BUTH     H3       HDA3A    0.900000E-01   1.00800           0   0.00000       0.00000    
     16016 BUTH     106      BUTH     H4       HDA2A    0.900000E-01   1.00800           0   0.00000       0.00000    
     16017 BUTH     106      BUTH     H5       HDA2A    0.900000E-01   1.00800           0   0.00000       0.00000    
     16018 BUTH     106      BUTH     H6       HDA2A    0.900000E-01   1.00800           0   0.00000       0.00000    
     16019 BUTH     106      BUTH     H7       HDA2A    0.900000E-01   1.00800           0   0.00000       0.00000    
     16020 BUTH     106      BUTH     H8       HDP1A    0.430000       1.00800           0   0.00000       0.00000    
     16021 BUTH     106      BUTH     H9       DUMH      0.00000       1.00800           0   0.00000       0.00000    
     16022 BUTH     106      BUTH     LPO11    LPDO1   -0.287000       0.00000          -1   0.00000       0.00000    
     16023 BUTH     106      BUTH     LPO12    LPDO1   -0.288000       0.00000          -1   0.00000       0.00000    
     16024 BUTH     106      BUTH     LPO21    LPD     -0.302000       0.00000          -1   0.00000       0.00000    
     16025 BUTH     106      BUTH     LPO22    LPD     -0.303000       0.00000          -1   0.00000       0.00000    
     16026 BUTH     107      BUTH     C1       CD33A     2.05990       11.6110           0  -1.81190       1.18670    
     16027 BUTH     107      BUTH     DC1      DRUD     -2.33590      0.400000           0   0.00000       0.00000    
     16028 BUTH     107      BUTH     C2       CD32A     2.02070       11.6110           0  -1.59660       1.16930    
     16029 BUTH     107      BUTH     DC2      DRUD     -2.19270      0.400000           0   0.00000       0.00000    
     16030 BUTH     107      BUTH     C3       CD32A     1.98270       11.6110           0  -1.59660       1.16930    
     16031 BUTH     107      BUTH     DC3      DRUD     -2.19270      0.400000           0   0.00000       0.00000    
     16032 BUTH     107      BUTH     C4       CD2O3A    2.72690       11.6110           0  -1.26130       1.05430    
     16033 BUTH     107      BUTH     DC4      DRUD     -1.94890      0.400000           0   0.00000       0.00000    
     16034 BUTH     107      BUTH     O1       OD2C1A    1.46540       15.5994           0 -0.713100      0.569800    
     16035 BUTH     107      BUTH     DO1      DRUD     -1.46540      0.400000           0   0.00000       0.00000    
     16036 BUTH     107      BUTH     O2       OD31A     1.58240       15.5990           0 -0.831500      0.749400    
     16037 BUTH     107      BUTH     DO2      DRUD     -1.58240      0.400000           0   0.00000       0.00000    
     16038 BUTH     107      BUTH     H1       HDA3A    0.900000E-01   1.00800           0   0.00000       0.00000    
     16039 BUTH     107      BUTH     H2       HDA3A    0.900000E-01   1.00800           0   0.00000       0.00000    
     16040 BUTH     107      BUTH     H3       HDA3A    0.900000E-01   1.00800           0   0.00000       0.00000    
     16041 BUTH     107      BUTH     H4       HDA2A    0.900000E-01   1.00800           0   0.00000       0.00000    
     16042 BUTH     107      BUTH     H5       HDA2A    0.900000E-01   1.00800           0   0.00000       0.00000    
     16043 BUTH     107      BUTH     H6       HDA2A    0.900000E-01   1.00800           0   0.00000       0.00000    
     16044 BUTH     107      BUTH     H7       HDA2A    0.900000E-01   1.00800           0   0.00000       0.00000    
     16045 BUTH     107      BUTH     H8       HDP1A    0.430000       1.00800           0   0.00000       0.00000    
     16046 BUTH     107      BUTH     H9       DUMH      0.00000       1.00800           0   0.00000       0.00000    
     16047 BUTH     107      BUTH     LPO11    LPDO1   -0.287000       0.00000          -1   0.00000       0.00000    
     16048 BUTH     107      BUTH     LPO12    LPDO1   -0.288000       0.00000          -1   0.00000       0.00000    
     16049 BUTH     107      BUTH     LPO21    LPD     -0.302000       0.00000          -1   0.00000       0.00000    
     16050 BUTH     107      BUTH     LPO22    LPD     -0.303000       0.00000          -1   0.00000       0.00000    
     16051 BUTH     108      BUTH     C1       CD33A     2.05990       11.6110           0  -1.81190       1.18670    
     16052 BUTH     108      BUTH     DC1      DRUD     -2.33590      0.400000           0   0.00000       0.00000    
     16053 BUTH     108      BUTH     C2       CD32A     2.02070       11.6110           0  -1.59660       1.16930    
     16054 BUTH     108      BUTH     DC2      DRUD     -2.19270      0.400000           0   0.00000       0.00000    
     16055 BUTH     108      BUTH     C3       CD32A     1.98270       11.6110           0  -1.59660       1.16930    
     16056 BUTH     108      BUTH     DC3      DRUD     -2.19270      0.400000           0   0.00000       0.00000    
     16057 BUTH     108      BUTH     C4       CD2O3A    2.72690       11.6110           0  -1.26130       1.05430    
     16058 BUTH     108      BUTH     DC4      DRUD     -1.94890      0.400000           0   0.00000       0.00000    
     16059 BUTH     108      BUTH     O1       OD2C1A    1.46540       15.5994           0 -0.713100      0.569800    
     16060 BUTH     108      BUTH     DO1      DRUD     -1.46540      0.400000           0   0.00000       0.00000    
     16061 BUTH     108      BUTH     O2       OD31A     1.58240       15.5990           0 -0.831500      0.749400    
     16062 BUTH     108      BUTH     DO2      DRUD     -1.58240      0.400000           0   0.00000       0.00000    
     16063 BUTH     108      BUTH     H1       HDA3A    0.900000E-01   1.00800           0   0.00000       0.00000    
     16064 BUTH     108      BUTH     H2       HDA3A    0.900000E-01   1.00800           0   0.00000       0.00000    
     16065 BUTH     108      BUTH     H3       HDA3A    0.900000E-01   1.00800           0   0.00000       0.00000    
     16066 BUTH     108      BUTH     H4       HDA2A    0.900000E-01   1.00800           0   0.00000       0.00000    
     16067 BUTH     108      BUTH     H5       HDA2A    0.900000E-01   1.00800           0   0.00000       0.00000    
     16068 BUTH     108      BUTH     H6       HDA2A    0.900000E-01   1.00800           0   0.00000       0.00000    
     16069 BUTH     108      BUTH     H7       HDA2A    0.900000E-01   1.00800           0   0.00000       0.00000    
     16070 BUTH     108      BUTH     H8       HDP1A    0.430000       1.00800           0   0.00000       0.00000    
     16071 BUTH     108      BUTH     H9       DUMH      0.00000       1.00800           0   0.00000       0.00000    
     16072 BUTH     108      BUTH     LPO11    LPDO1   -0.287000       0.00000          -1   0.00000       0.00000    
     16073 BUTH     108      BUTH     LPO12    LPDO1   -0.288000       0.00000          -1   0.00000       0.00000    
     16074 BUTH     108      BUTH     LPO21    LPD     -0.302000       0.00000          -1   0.00000       0.00000    
     16075 BUTH     108      BUTH     LPO22    LPD     -0.303000       0.00000          -1   0.00000       0.00000    
     16076 BUTH     109      BUTH     C1       CD33A     2.05990       11.6110           0  -1.81190       1.18670    
     16077 BUTH     109      BUTH     DC1      DRUD     -2.33590      0.400000           0   0.00000       0.00000    
     16078 BUTH     109      BUTH     C2       CD32A     2.02070       11.6110           0  -1.59660       1.16930    
     16079 BUTH     109      BUTH     DC2      DRUD     -2.19270      0.400000           0   0.00000       0.00000    
     16080 BUTH     109      BUTH     C3       CD32A     1.98270       11.6110           0  -1.59660       1.16930    
     16081 BUTH     109      BUTH     DC3      DRUD     -2.19270      0.400000           0   0.00000       0.00000    
     16082 BUTH     109      BUTH     C4       CD2O3A    2.72690       11.6110           0  -1.26130       1.05430    
     16083 BUTH     109      BUTH     DC4      DRUD     -1.94890      0.400000           0   0.00000       0.00000    
     16084 BUTH     109      BUTH     O1       OD2C1A    1.46540       15.5994           0 -0.713100      0.569800    
     16085 BUTH     109      BUTH     DO1      DRUD     -1.46540      0.400000           0   0.00000       0.00000    
     16086 BUTH     109      BUTH     O2       OD31A     1.58240       15.5990           0 -0.831500      0.749400    
     16087 BUTH     109      BUTH     DO2      DRUD     -1.58240      0.400000           0   0.00000       0.00000    
     16088 BUTH     109      BUTH     H1       HDA3A    0.900000E-01   1.00800           0   0.00000       0.00000    
     16089 BUTH     109      BUTH     H2       HDA3A    0.900000E-01   1.00800           0   0.00000       0.00000    
     16090 BUTH     109      BUTH     H3       HDA3A    0.900000E-01   1.00800           0   0.00000       0.00000    
     16091 BUTH     109      BUTH     H4       HDA2A    0.900000E-01   1.00800           0   0.00000       0.00000    
     16092 BUTH     109      BUTH     H5       HDA2A    0.900000E-01   1.00800           0   0.00000       0.00000    
     16093 BUTH     109      BUTH     H6       HDA2A    0.900000E-01   1.00800           0   0.00000       0.00000    
     16094 BUTH     109      BUTH     H7       HDA2A    0.900000E-01   1.00800           0   0.00000       0.00000    
     16095 BUTH     109      BUTH     H8       HDP1A    0.430000       1.00800           0   0.00000       0.00000    
     16096 BUTH     109      BUTH     H9       DUMH      0.00000       1.00800           0   0.00000       0.00000    
     16097 BUTH     109      BUTH     LPO11    LPDO1   -0.287000       0.00000          -1   0.00000       0.00000    
     16098 BUTH     109      BUTH     LPO12    LPDO1   -0.288000       0.00000          -1   0.00000       0.00000    
     16099 BUTH     109      BUTH     LPO21    LPD     -0.302000       0.00000          -1   0.00000       0.00000    
     16100 BUTH     109      BUTH     LPO22    LPD     -0.303000       0.00000          -1   0.00000       0.00000    
     16101 BUTH     110      BUTH     C1       CD33A     2.05990       11.6110           0  -1.81190       1.18670    
     16102 BUTH     110      BUTH     DC1      DRUD     -2.33590      0.400000           0   0.00000       0.00000    
     16103 BUTH     110      BUTH     C2       CD32A     2.02070       11.6110           0  -1.59660       1.16930    
     16104 BUTH     110      BUTH     DC2      DRUD     -2.19270      0.400000           0   0.00000       0.00000    
     16105 BUTH     110      BUTH     C3       CD32A     1.98270       11.6110           0  -1.59660       1.16930    
     16106 BUTH     110      BUTH     DC3      DRUD     -2.19270      0.400000           0   0.00000       0.00000    
     16107 BUTH     110      BUTH     C4       CD2O3A    2.72690       11.6110           0  -1.26130       1.05430    
     16108 BUTH     110      BUTH     DC4      DRUD     -1.94890      0.400000           0   0.00000       0.00000    
     16109 BUTH     110      BUTH     O1       OD2C1A    1.46540       15.5994           0 -0.713100      0.569800    
     16110 BUTH     110      BUTH     DO1      DRUD     -1.46540      0.400000           0   0.00000       0.00000    
     16111 BUTH     110      BUTH     O2       OD31A     1.58240       15.5990           0 -0.831500      0.749400    
     16112 BUTH     110      BUTH     DO2      DRUD     -1.58240      0.400000           0   0.00000       0.00000    
     16113 BUTH     110      BUTH     H1       HDA3A    0.900000E-01   1.00800           0   0.00000       0.00000    
     16114 BUTH     110      BUTH     H2       HDA3A    0.900000E-01   1.00800           0   0.00000       0.00000    
     16115 BUTH     110      BUTH     H3       HDA3A    0.900000E-01   1.00800           0   0.00000       0.00000    
     16116 BUTH     110      BUTH     H4       HDA2A    0.900000E-01   1.00800           0   0.00000       0.00000    
     16117 BUTH     110      BUTH     H5       HDA2A    0.900000E-01   1.00800           0   0.00000       0.00000    
     16118 BUTH     110      BUTH     H6       HDA2A    0.900000E-01   1.00800           0   0.00000       0.00000    
     16119 BUTH     110      BUTH     H7       HDA2A    0.900000E-01   1.00800           0   0.00000       0.00000    
     16120 BUTH     110      BUTH     H8       HDP1A    0.430000       1.00800           0   0.00000       0.00000    
     16121 BUTH     110      BUTH     H9       DUMH      0.00000       1.00800           0   0.00000       0.00000    
     16122 BUTH     110      BUTH     LPO11    LPDO1   -0.287000       0.00000          -1   0.00000       0.00000    
     16123 BUTH     110      BUTH     LPO12    LPDO1   -0.288000       0.00000          -1   0.00000       0.00000    
     16124 BUTH     110      BUTH     LPO21    LPD     -0.302000       0.00000          -1   0.00000       0.00000    
     16125 BUTH     110      BUTH     LPO22    LPD     -0.303000       0.00000          -1   0.00000       0.00000    
     16126 BUTH     111      BUTH     C1       CD33A     2.05990       11.6110           0  -1.81190       1.18670    
     16127 BUTH     111      BUTH     DC1      DRUD     -2.33590      0.400000           0   0.00000       0.00000    
     16128 BUTH     111      BUTH     C2       CD32A     2.02070       11.6110           0  -1.59660       1.16930    
     16129 BUTH     111      BUTH     DC2      DRUD     -2.19270      0.400000           0   0.00000       0.00000    
     16130 BUTH     111      BUTH     C3       CD32A     1.98270       11.6110           0  -1.59660       1.16930    
     16131 BUTH     111      BUTH     DC3      DRUD     -2.19270      0.400000           0   0.00000       0.00000    
     16132 BUTH     111      BUTH     C4       CD2O3A    2.72690       11.6110           0  -1.26130       1.05430    
     16133 BUTH     111      BUTH     DC4      DRUD     -1.94890      0.400000           0   0.00000       0.00000    
     16134 BUTH     111      BUTH     O1       OD2C1A    1.46540       15.5994           0 -0.713100      0.569800    
     16135 BUTH     111      BUTH     DO1      DRUD     -1.46540      0.400000           0   0.00000       0.00000    
     16136 BUTH     111      BUTH     O2       OD31A     1.58240       15.5990           0 -0.831500      0.749400    
     16137 BUTH     111      BUTH     DO2      DRUD     -1.58240      0.400000           0   0.00000       0.00000    
     16138 BUTH     111      BUTH     H1       HDA3A    0.900000E-01   1.00800           0   0.00000       0.00000    
     16139 BUTH     111      BUTH     H2       HDA3A    0.900000E-01   1.00800           0   0.00000       0.00000    
     16140 BUTH     111      BUTH     H3       HDA3A    0.900000E-01   1.00800           0   0.00000       0.00000    
     16141 BUTH     111      BUTH     H4       HDA2A    0.900000E-01   1.00800           0   0.00000       0.00000    
     16142 BUTH     111      BUTH     H5       HDA2A    0.900000E-01   1.00800           0   0.00000       0.00000    
     16143 BUTH     111      BUTH     H6       HDA2A    0.900000E-01   1.00800           0   0.00000       0.00000    
     16144 BUTH     111      BUTH     H7       HDA2A    0.900000E-01   1.00800           0   0.00000       0.00000    
     16145 BUTH     111      BUTH     H8       HDP1A    0.430000       1.00800           0   0.00000       0.00000    
     16146 BUTH     111      BUTH     H9       DUMH      0.00000       1.00800           0   0.00000       0.00000    
     16147 BUTH     111      BUTH     LPO11    LPDO1   -0.287000       0.00000          -1   0.00000       0.00000    
     16148 BUTH     111      BUTH     LPO12    LPDO1   -0.288000       0.00000          -1   0.00000       0.00000    
     16149 BUTH     111      BUTH     LPO21    LPD     -0.302000       0.00000          -1   0.00000       0.00000    
     16150 BUTH     111      BUTH     LPO22    LPD     -0.303000       0.00000          -1   0.00000       0.00000    
     16151 BUTH     112      BUTH     C1       CD33A     2.05990       11.6110           0  -1.81190       1.18670    
     16152 BUTH     112      BUTH     DC1      DRUD     -2.33590      0.400000           0   0.00000       0.00000    
     16153 BUTH     112      BUTH     C2       CD32A     2.02070       11.6110           0  -1.59660       1.16930    
     16154 BUTH     112      BUTH     DC2      DRUD     -2.19270      0.400000           0   0.00000       0.00000    
     16155 BUTH     112      BUTH     C3       CD32A     1.98270       11.6110           0  -1.59660       1.16930    
     16156 BUTH     112      BUTH     DC3      DRUD     -2.19270      0.400000           0   0.00000       0.00000    
     16157 BUTH     112      BUTH     C4       CD2O3A    2.72690       11.6110           0  -1.26130       1.05430    
     16158 BUTH     112      BUTH     DC4      DRUD     -1.94890      0.400000           0   0.00000       0.00000    
     16159 BUTH     112      BUTH     O1       OD2C1A    1.46540       15.5994           0 -0.713100      0.569800    
     16160 BUTH     112      BUTH     DO1      DRUD     -1.46540      0.400000           0   0.00000       0.00000    
     16161 BUTH     112      BUTH     O2       OD31A     1.58240       15.5990           0 -0.831500      0.749400    
     16162 BUTH     112      BUTH     DO2      DRUD     -1.58240      0.400000           0   0.00000       0.00000    
     16163 BUTH     112      BUTH     H1       HDA3A    0.900000E-01   1.00800           0   0.00000       0.00000    
     16164 BUTH     112      BUTH     H2       HDA3A    0.900000E-01   1.00800           0   0.00000       0.00000    
     16165 BUTH     112      BUTH     H3       HDA3A    0.900000E-01   1.00800           0   0.00000       0.00000    
     16166 BUTH     112      BUTH     H4       HDA2A    0.900000E-01   1.00800           0   0.00000       0.00000    
     16167 BUTH     112      BUTH     H5       HDA2A    0.900000E-01   1.00800           0   0.00000       0.00000    
     16168 BUTH     112      BUTH     H6       HDA2A    0.900000E-01   1.00800           0   0.00000       0.00000    
     16169 BUTH     112      BUTH     H7       HDA2A    0.900000E-01   1.00800           0   0.00000       0.00000    
     16170 BUTH     112      BUTH     H8       HDP1A    0.430000       1.00800           0   0.00000       0.00000    
     16171 BUTH     112      BUTH     H9       DUMH      0.00000       1.00800           0   0.00000       0.00000    
     16172 BUTH     112      BUTH     LPO11    LPDO1   -0.287000       0.00000          -1   0.00000       0.00000    
     16173 BUTH     112      BUTH     LPO12    LPDO1   -0.288000       0.00000          -1   0.00000       0.00000    
     16174 BUTH     112      BUTH     LPO21    LPD     -0.302000       0.00000          -1   0.00000       0.00000    
     16175 BUTH     112      BUTH     LPO22    LPD     -0.303000       0.00000          -1   0.00000       0.00000    
     16176 BUTH     113      BUTH     C1       CD33A     2.05990       11.6110           0  -1.81190       1.18670    
     16177 BUTH     113      BUTH     DC1      DRUD     -2.33590      0.400000           0   0.00000       0.00000    
     16178 BUTH     113      BUTH     C2       CD32A     2.02070       11.6110           0  -1.59660       1.16930    
     16179 BUTH     113      BUTH     DC2      DRUD     -2.19270      0.400000           0   0.00000       0.00000    
     16180 BUTH     113      BUTH     C3       CD32A     1.98270       11.6110           0  -1.59660       1.16930    
     16181 BUTH     113      BUTH     DC3      DRUD     -2.19270      0.400000           0   0.00000       0.00000    
     16182 BUTH     113      BUTH     C4       CD2O3A    2.72690       11.6110           0  -1.26130       1.05430    
     16183 BUTH     113      BUTH     DC4      DRUD     -1.94890      0.400000           0   0.00000       0.00000    
     16184 BUTH     113      BUTH     O1       OD2C1A    1.46540       15.5994           0 -0.713100      0.569800    
     16185 BUTH     113      BUTH     DO1      DRUD     -1.46540      0.400000           0   0.00000       0.00000    
     16186 BUTH     113      BUTH     O2       OD31A     1.58240       15.5990           0 -0.831500      0.749400    
     16187 BUTH     113      BUTH     DO2      DRUD     -1.58240      0.400000           0   0.00000       0.00000    
     16188 BUTH     113      BUTH     H1       HDA3A    0.900000E-01   1.00800           0   0.00000       0.00000    
     16189 BUTH     113      BUTH     H2       HDA3A    0.900000E-01   1.00800           0   0.00000       0.00000    
     16190 BUTH     113      BUTH     H3       HDA3A    0.900000E-01   1.00800           0   0.00000       0.00000    
     16191 BUTH     113      BUTH     H4       HDA2A    0.900000E-01   1.00800           0   0.00000       0.00000    
     16192 BUTH     113      BUTH     H5       HDA2A    0.900000E-01   1.00800           0   0.00000       0.00000    
     16193 BUTH     113      BUTH     H6       HDA2A    0.900000E-01   1.00800           0   0.00000       0.00000    
     16194 BUTH     113      BUTH     H7       HDA2A    0.900000E-01   1.00800           0   0.00000       0.00000    
     16195 BUTH     113      BUTH     H8       HDP1A    0.430000       1.00800           0   0.00000       0.00000    
     16196 BUTH     113      BUTH     H9       DUMH      0.00000       1.00800           0   0.00000       0.00000    
     16197 BUTH     113      BUTH     LPO11    LPDO1   -0.287000       0.00000          -1   0.00000       0.00000    
     16198 BUTH     113      BUTH     LPO12    LPDO1   -0.288000       0.00000          -1   0.00000       0.00000    
     16199 BUTH     113      BUTH     LPO21    LPD     -0.302000       0.00000          -1   0.00000       0.00000    
     16200 BUTH     113      BUTH     LPO22    LPD     -0.303000       0.00000          -1   0.00000       0.00000    
     16201 BUTH     114      BUTH     C1       CD33A     2.05990       11.6110           0  -1.81190       1.18670    
     16202 BUTH     114      BUTH     DC1      DRUD     -2.33590      0.400000           0   0.00000       0.00000    
     16203 BUTH     114      BUTH     C2       CD32A     2.02070       11.6110           0  -1.59660       1.16930    
     16204 BUTH     114      BUTH     DC2      DRUD     -2.19270      0.400000           0   0.00000       0.00000    
     16205 BUTH     114      BUTH     C3       CD32A     1.98270       11.6110           0  -1.59660       1.16930    
     16206 BUTH     114      BUTH     DC3      DRUD     -2.19270      0.400000           0   0.00000       0.00000    
     16207 BUTH     114      BUTH     C4       CD2O3A    2.72690       11.6110           0  -1.26130       1.05430    
     16208 BUTH     114      BUTH     DC4      DRUD     -1.94890      0.400000           0   0.00000       0.00000    
     16209 BUTH     114      BUTH     O1       OD2C1A    1.46540       15.5994           0 -0.713100      0.569800    
     16210 BUTH     114      BUTH     DO1      DRUD     -1.46540      0.400000           0   0.00000       0.00000    
     16211 BUTH     114      BUTH     O2       OD31A     1.58240       15.5990           0 -0.831500      0.749400    
     16212 BUTH     114      BUTH     DO2      DRUD     -1.58240      0.400000           0   0.00000       0.00000    
     16213 BUTH     114      BUTH     H1       HDA3A    0.900000E-01   1.00800           0   0.00000       0.00000    
     16214 BUTH     114      BUTH     H2       HDA3A    0.900000E-01   1.00800           0   0.00000       0.00000    
     16215 BUTH     114      BUTH     H3       HDA3A    0.900000E-01   1.00800           0   0.00000       0.00000    
     16216 BUTH     114      BUTH     H4       HDA2A    0.900000E-01   1.00800           0   0.00000       0.00000    
     16217 BUTH     114      BUTH     H5       HDA2A    0.900000E-01   1.00800           0   0.00000       0.00000    
     16218 BUTH     114      BUTH     H6       HDA2A    0.900000E-01   1.00800           0   0.00000       0.00000    
     16219 BUTH     114      BUTH     H7       HDA2A    0.900000E-01   1.00800           0   0.00000       0.00000    
     16220 BUTH     114      BUTH     H8       HDP1A    0.430000       1.00800           0   0.00000       0.00000    
     16221 BUTH     114      BUTH     H9       DUMH      0.00000       1.00800           0   0.00000       0.00000    
     16222 BUTH     114      BUTH     LPO11    LPDO1   -0.287000       0.00000          -1   0.00000       0.00000    
     16223 BUTH     114      BUTH     LPO12    LPDO1   -0.288000       0.00000          -1   0.00000       0.00000    
     16224 BUTH     114      BUTH     LPO21    LPD     -0.302000       0.00000          -1   0.00000       0.00000    
     16225 BUTH     114      BUTH     LPO22    LPD     -0.303000       0.00000          -1   0.00000       0.00000    
     16226 BUTH     115      BUTH     C1       CD33A     2.05990       11.6110           0  -1.81190       1.18670    
     16227 BUTH     115      BUTH     DC1      DRUD     -2.33590      0.400000           0   0.00000       0.00000    
     16228 BUTH     115      BUTH     C2       CD32A     2.02070       11.6110           0  -1.59660       1.16930    
     16229 BUTH     115      BUTH     DC2      DRUD     -2.19270      0.400000           0   0.00000       0.00000    
     16230 BUTH     115      BUTH     C3       CD32A     1.98270       11.6110           0  -1.59660       1.16930    
     16231 BUTH     115      BUTH     DC3      DRUD     -2.19270      0.400000           0   0.00000       0.00000    
     16232 BUTH     115      BUTH     C4       CD2O3A    2.72690       11.6110           0  -1.26130       1.05430    
     16233 BUTH     115      BUTH     DC4      DRUD     -1.94890      0.400000           0   0.00000       0.00000    
     16234 BUTH     115      BUTH     O1       OD2C1A    1.46540       15.5994           0 -0.713100      0.569800    
     16235 BUTH     115      BUTH     DO1      DRUD     -1.46540      0.400000           0   0.00000       0.00000    
     16236 BUTH     115      BUTH     O2       OD31A     1.58240       15.5990           0 -0.831500      0.749400    
     16237 BUTH     115      BUTH     DO2      DRUD     -1.58240      0.400000           0   0.00000       0.00000    
     16238 BUTH     115      BUTH     H1       HDA3A    0.900000E-01   1.00800           0   0.00000       0.00000    
     16239 BUTH     115      BUTH     H2       HDA3A    0.900000E-01   1.00800           0   0.00000       0.00000    
     16240 BUTH     115      BUTH     H3       HDA3A    0.900000E-01   1.00800           0   0.00000       0.00000    
     16241 BUTH     115      BUTH     H4       HDA2A    0.900000E-01   1.00800           0   0.00000       0.00000    
     16242 BUTH     115      BUTH     H5       HDA2A    0.900000E-01   1.00800           0   0.00000       0.00000    
     16243 BUTH     115      BUTH     H6       HDA2A    0.900000E-01   1.00800           0   0.00000       0.00000    
     16244 BUTH     115      BUTH     H7       HDA2A    0.900000E-01   1.00800           0   0.00000       0.00000    
     16245 BUTH     115      BUTH     H8       HDP1A    0.430000       1.00800           0   0.00000       0.00000    
     16246 BUTH     115      BUTH     H9       DUMH      0.00000       1.00800           0   0.00000       0.00000    
     16247 BUTH     115      BUTH     LPO11    LPDO1   -0.287000       0.00000          -1   0.00000       0.00000    
     16248 BUTH     115      BUTH     LPO12    LPDO1   -0.288000       0.00000          -1   0.00000       0.00000    
     16249 BUTH     115      BUTH     LPO21    LPD     -0.302000       0.00000          -1   0.00000       0.00000    
     16250 BUTH     115      BUTH     LPO22    LPD     -0.303000       0.00000          -1   0.00000       0.00000    
     16251 BUTH     116      BUTH     C1       CD33A     2.05990       11.6110           0  -1.81190       1.18670    
     16252 BUTH     116      BUTH     DC1      DRUD     -2.33590      0.400000           0   0.00000       0.00000    
     16253 BUTH     116      BUTH     C2       CD32A     2.02070       11.6110           0  -1.59660       1.16930    
     16254 BUTH     116      BUTH     DC2      DRUD     -2.19270      0.400000           0   0.00000       0.00000    
     16255 BUTH     116      BUTH     C3       CD32A     1.98270       11.6110           0  -1.59660       1.16930    
     16256 BUTH     116      BUTH     DC3      DRUD     -2.19270      0.400000           0   0.00000       0.00000    
     16257 BUTH     116      BUTH     C4       CD2O3A    2.72690       11.6110           0  -1.26130       1.05430    
     16258 BUTH     116      BUTH     DC4      DRUD     -1.94890      0.400000           0   0.00000       0.00000    
     16259 BUTH     116      BUTH     O1       OD2C1A    1.46540       15.5994           0 -0.713100      0.569800    
     16260 BUTH     116      BUTH     DO1      DRUD     -1.46540      0.400000           0   0.00000       0.00000    
     16261 BUTH     116      BUTH     O2       OD31A     1.58240       15.5990           0 -0.831500      0.749400    
     16262 BUTH     116      BUTH     DO2      DRUD     -1.58240      0.400000           0   0.00000       0.00000    
     16263 BUTH     116      BUTH     H1       HDA3A    0.900000E-01   1.00800           0   0.00000       0.00000    
     16264 BUTH     116      BUTH     H2       HDA3A    0.900000E-01   1.00800           0   0.00000       0.00000    
     16265 BUTH     116      BUTH     H3       HDA3A    0.900000E-01   1.00800           0   0.00000       0.00000    
     16266 BUTH     116      BUTH     H4       HDA2A    0.900000E-01   1.00800           0   0.00000       0.00000    
     16267 BUTH     116      BUTH     H5       HDA2A    0.900000E-01   1.00800           0   0.00000       0.00000    
     16268 BUTH     116      BUTH     H6       HDA2A    0.900000E-01   1.00800           0   0.00000       0.00000    
     16269 BUTH     116      BUTH     H7       HDA2A    0.900000E-01   1.00800           0   0.00000       0.00000    
     16270 BUTH     116      BUTH     H8       HDP1A    0.430000       1.00800           0   0.00000       0.00000    
     16271 BUTH     116      BUTH     H9       DUMH      0.00000       1.00800           0   0.00000       0.00000    
     16272 BUTH     116      BUTH     LPO11    LPDO1   -0.287000       0.00000          -1   0.00000       0.00000    
     16273 BUTH     116      BUTH     LPO12    LPDO1   -0.288000       0.00000          -1   0.00000       0.00000    
     16274 BUTH     116      BUTH     LPO21    LPD     -0.302000       0.00000          -1   0.00000       0.00000    
     16275 BUTH     116      BUTH     LPO22    LPD     -0.303000       0.00000          -1   0.00000       0.00000    
     16276 BUTH     117      BUTH     C1       CD33A     2.05990       11.6110           0  -1.81190       1.18670    
     16277 BUTH     117      BUTH     DC1      DRUD     -2.33590      0.400000           0   0.00000       0.00000    
     16278 BUTH     117      BUTH     C2       CD32A     2.02070       11.6110           0  -1.59660       1.16930    
     16279 BUTH     117      BUTH     DC2      DRUD     -2.19270      0.400000           0   0.00000       0.00000    
     16280 BUTH     117      BUTH     C3       CD32A     1.98270       11.6110           0  -1.59660       1.16930    
     16281 BUTH     117      BUTH     DC3      DRUD     -2.19270      0.400000           0   0.00000       0.00000    
     16282 BUTH     117      BUTH     C4       CD2O3A    2.72690       11.6110           0  -1.26130       1.05430    
     16283 BUTH     117      BUTH     DC4      DRUD     -1.94890      0.400000           0   0.00000       0.00000    
     16284 BUTH     117      BUTH     O1       OD2C1A    1.46540       15.5994           0 -0.713100      0.569800    
     16285 BUTH     117      BUTH     DO1      DRUD     -1.46540      0.400000           0   0.00000       0.00000    
     16286 BUTH     117      BUTH     O2       OD31A     1.58240       15.5990           0 -0.831500      0.749400    
     16287 BUTH     117      BUTH     DO2      DRUD     -1.58240      0.400000           0   0.00000       0.00000    
     16288 BUTH     117      BUTH     H1       HDA3A    0.900000E-01   1.00800           0   0.00000       0.00000    
     16289 BUTH     117      BUTH     H2       HDA3A    0.900000E-01   1.00800           0   0.00000       0.00000    
     16290 BUTH     117      BUTH     H3       HDA3A    0.900000E-01   1.00800           0   0.00000       0.00000    
     16291 BUTH     117      BUTH     H4       HDA2A    0.900000E-01   1.00800           0   0.00000       0.00000    
     16292 BUTH     117      BUTH     H5       HDA2A    0.900000E-01   1.00800           0   0.00000       0.00000    
     16293 BUTH     117      BUTH     H6       HDA2A    0.900000E-01   1.00800           0   0.00000       0.00000    
     16294 BUTH     117      BUTH     H7       HDA2A    0.900000E-01   1.00800           0   0.00000       0.00000    
     16295 BUTH     117      BUTH     H8       HDP1A    0.430000       1.00800           0   0.00000       0.00000    
     16296 BUTH     117      BUTH     H9       DUMH      0.00000       1.00800           0   0.00000       0.00000    
     16297 BUTH     117      BUTH     LPO11    LPDO1   -0.287000       0.00000          -1   0.00000       0.00000    
     16298 BUTH     117      BUTH     LPO12    LPDO1   -0.288000       0.00000          -1   0.00000       0.00000    
     16299 BUTH     117      BUTH     LPO21    LPD     -0.302000       0.00000          -1   0.00000       0.00000    
     16300 BUTH     117      BUTH     LPO22    LPD     -0.303000       0.00000          -1   0.00000       0.00000    
     16301 BUTH     118      BUTH     C1       CD33A     2.05990       11.6110           0  -1.81190       1.18670    
     16302 BUTH     118      BUTH     DC1      DRUD     -2.33590      0.400000           0   0.00000       0.00000    
     16303 BUTH     118      BUTH     C2       CD32A     2.02070       11.6110           0  -1.59660       1.16930    
     16304 BUTH     118      BUTH     DC2      DRUD     -2.19270      0.400000           0   0.00000       0.00000    
     16305 BUTH     118      BUTH     C3       CD32A     1.98270       11.6110           0  -1.59660       1.16930    
     16306 BUTH     118      BUTH     DC3      DRUD     -2.19270      0.400000           0   0.00000       0.00000    
     16307 BUTH     118      BUTH     C4       CD2O3A    2.72690       11.6110           0  -1.26130       1.05430    
     16308 BUTH     118      BUTH     DC4      DRUD     -1.94890      0.400000           0   0.00000       0.00000    
     16309 BUTH     118      BUTH     O1       OD2C1A    1.46540       15.5994           0 -0.713100      0.569800    
     16310 BUTH     118      BUTH     DO1      DRUD     -1.46540      0.400000           0   0.00000       0.00000    
     16311 BUTH     118      BUTH     O2       OD31A     1.58240       15.5990           0 -0.831500      0.749400    
     16312 BUTH     118      BUTH     DO2      DRUD     -1.58240      0.400000           0   0.00000       0.00000    
     16313 BUTH     118      BUTH     H1       HDA3A    0.900000E-01   1.00800           0   0.00000       0.00000    
     16314 BUTH     118      BUTH     H2       HDA3A    0.900000E-01   1.00800           0   0.00000       0.00000    
     16315 BUTH     118      BUTH     H3       HDA3A    0.900000E-01   1.00800           0   0.00000       0.00000    
     16316 BUTH     118      BUTH     H4       HDA2A    0.900000E-01   1.00800           0   0.00000       0.00000    
     16317 BUTH     118      BUTH     H5       HDA2A    0.900000E-01   1.00800           0   0.00000       0.00000    
     16318 BUTH     118      BUTH     H6       HDA2A    0.900000E-01   1.00800           0   0.00000       0.00000    
     16319 BUTH     118      BUTH     H7       HDA2A    0.900000E-01   1.00800           0   0.00000       0.00000    
     16320 BUTH     118      BUTH     H8       HDP1A    0.430000       1.00800           0   0.00000       0.00000    
     16321 BUTH     118      BUTH     H9       DUMH      0.00000       1.00800           0   0.00000       0.00000    
     16322 BUTH     118      BUTH     LPO11    LPDO1   -0.287000       0.00000          -1   0.00000       0.00000    
     16323 BUTH     118      BUTH     LPO12    LPDO1   -0.288000       0.00000          -1   0.00000       0.00000    
     16324 BUTH     118      BUTH     LPO21    LPD     -0.302000       0.00000          -1   0.00000       0.00000    
     16325 BUTH     118      BUTH     LPO22    LPD     -0.303000       0.00000          -1   0.00000       0.00000    
     16326 BUTH     119      BUTH     C1       CD33A     2.05990       11.6110           0  -1.81190       1.18670    
     16327 BUTH     119      BUTH     DC1      DRUD     -2.33590      0.400000           0   0.00000       0.00000    
     16328 BUTH     119      BUTH     C2       CD32A     2.02070       11.6110           0  -1.59660       1.16930    
     16329 BUTH     119      BUTH     DC2      DRUD     -2.19270      0.400000           0   0.00000       0.00000    
     16330 BUTH     119      BUTH     C3       CD32A     1.98270       11.6110           0  -1.59660       1.16930    
     16331 BUTH     119      BUTH     DC3      DRUD     -2.19270      0.400000           0   0.00000       0.00000    
     16332 BUTH     119      BUTH     C4       CD2O3A    2.72690       11.6110           0  -1.26130       1.05430    
     16333 BUTH     119      BUTH     DC4      DRUD     -1.94890      0.400000           0   0.00000       0.00000    
     16334 BUTH     119      BUTH     O1       OD2C1A    1.46540       15.5994           0 -0.713100      0.569800    
     16335 BUTH     119      BUTH     DO1      DRUD     -1.46540      0.400000           0   0.00000       0.00000    
     16336 BUTH     119      BUTH     O2       OD31A     1.58240       15.5990           0 -0.831500      0.749400    
     16337 BUTH     119      BUTH     DO2      DRUD     -1.58240      0.400000           0   0.00000       0.00000    
     16338 BUTH     119      BUTH     H1       HDA3A    0.900000E-01   1.00800           0   0.00000       0.00000    
     16339 BUTH     119      BUTH     H2       HDA3A    0.900000E-01   1.00800           0   0.00000       0.00000    
     16340 BUTH     119      BUTH     H3       HDA3A    0.900000E-01   1.00800           0   0.00000       0.00000    
     16341 BUTH     119      BUTH     H4       HDA2A    0.900000E-01   1.00800           0   0.00000       0.00000    
     16342 BUTH     119      BUTH     H5       HDA2A    0.900000E-01   1.00800           0   0.00000       0.00000    
     16343 BUTH     119      BUTH     H6       HDA2A    0.900000E-01   1.00800           0   0.00000       0.00000    
     16344 BUTH     119      BUTH     H7       HDA2A    0.900000E-01   1.00800           0   0.00000       0.00000    
     16345 BUTH     119      BUTH     H8       HDP1A    0.430000       1.00800           0   0.00000       0.00000    
     16346 BUTH     119      BUTH     H9       DUMH      0.00000       1.00800           0   0.00000       0.00000    
     16347 BUTH     119      BUTH     LPO11    LPDO1   -0.287000       0.00000          -1   0.00000       0.00000    
     16348 BUTH     119      BUTH     LPO12    LPDO1   -0.288000       0.00000          -1   0.00000       0.00000    
     16349 BUTH     119      BUTH     LPO21    LPD     -0.302000       0.00000          -1   0.00000       0.00000    
     16350 BUTH     119      BUTH     LPO22    LPD     -0.303000       0.00000          -1   0.00000       0.00000    
     16351 BUTH     120      BUTH     C1       CD33A     2.05990       11.6110           0  -1.81190       1.18670    
     16352 BUTH     120      BUTH     DC1      DRUD     -2.33590      0.400000           0   0.00000       0.00000    
     16353 BUTH     120      BUTH     C2       CD32A     2.02070       11.6110           0  -1.59660       1.16930    
     16354 BUTH     120      BUTH     DC2      DRUD     -2.19270      0.400000           0   0.00000       0.00000    
     16355 BUTH     120      BUTH     C3       CD32A     1.98270       11.6110           0  -1.59660       1.16930    
     16356 BUTH     120      BUTH     DC3      DRUD     -2.19270      0.400000           0   0.00000       0.00000    
     16357 BUTH     120      BUTH     C4       CD2O3A    2.72690       11.6110           0  -1.26130       1.05430    
     16358 BUTH     120      BUTH     DC4      DRUD     -1.94890      0.400000           0   0.00000       0.00000    
     16359 BUTH     120      BUTH     O1       OD2C1A    1.46540       15.5994           0 -0.713100      0.569800    
     16360 BUTH     120      BUTH     DO1      DRUD     -1.46540      0.400000           0   0.00000       0.00000    
     16361 BUTH     120      BUTH     O2       OD31A     1.58240       15.5990           0 -0.831500      0.749400    
     16362 BUTH     120      BUTH     DO2      DRUD     -1.58240      0.400000           0   0.00000       0.00000    
     16363 BUTH     120      BUTH     H1       HDA3A    0.900000E-01   1.00800           0   0.00000       0.00000    
     16364 BUTH     120      BUTH     H2       HDA3A    0.900000E-01   1.00800           0   0.00000       0.00000    
     16365 BUTH     120      BUTH     H3       HDA3A    0.900000E-01   1.00800           0   0.00000       0.00000    
     16366 BUTH     120      BUTH     H4       HDA2A    0.900000E-01   1.00800           0   0.00000       0.00000    
     16367 BUTH     120      BUTH     H5       HDA2A    0.900000E-01   1.00800           0   0.00000       0.00000    
     16368 BUTH     120      BUTH     H6       HDA2A    0.900000E-01   1.00800           0   0.00000       0.00000    
     16369 BUTH     120      BUTH     H7       HDA2A    0.900000E-01   1.00800           0   0.00000       0.00000    
     16370 BUTH     120      BUTH     H8       HDP1A    0.430000       1.00800           0   0.00000       0.00000    
     16371 BUTH     120      BUTH     H9       DUMH      0.00000       1.00800           0   0.00000       0.00000    
     16372 BUTH     120      BUTH     LPO11    LPDO1   -0.287000       0.00000          -1   0.00000       0.00000    
     16373 BUTH     120      BUTH     LPO12    LPDO1   -0.288000       0.00000          -1   0.00000       0.00000    
     16374 BUTH     120      BUTH     LPO21    LPD     -0.302000       0.00000          -1   0.00000       0.00000    
     16375 BUTH     120      BUTH     LPO22    LPD     -0.303000       0.00000          -1   0.00000       0.00000    
     16376 BUTH     121      BUTH     C1       CD33A     2.05990       11.6110           0  -1.81190       1.18670    
     16377 BUTH     121      BUTH     DC1      DRUD     -2.33590      0.400000           0   0.00000       0.00000    
     16378 BUTH     121      BUTH     C2       CD32A     2.02070       11.6110           0  -1.59660       1.16930    
     16379 BUTH     121      BUTH     DC2      DRUD     -2.19270      0.400000           0   0.00000       0.00000    
     16380 BUTH     121      BUTH     C3       CD32A     1.98270       11.6110           0  -1.59660       1.16930    
     16381 BUTH     121      BUTH     DC3      DRUD     -2.19270      0.400000           0   0.00000       0.00000    
     16382 BUTH     121      BUTH     C4       CD2O3A    2.72690       11.6110           0  -1.26130       1.05430    
     16383 BUTH     121      BUTH     DC4      DRUD     -1.94890      0.400000           0   0.00000       0.00000    
     16384 BUTH     121      BUTH     O1       OD2C1A    1.46540       15.5994           0 -0.713100      0.569800    
     16385 BUTH     121      BUTH     DO1      DRUD     -1.46540      0.400000           0   0.00000       0.00000    
     16386 BUTH     121      BUTH     O2       OD31A     1.58240       15.5990           0 -0.831500      0.749400    
     16387 BUTH     121      BUTH     DO2      DRUD     -1.58240      0.400000           0   0.00000       0.00000    
     16388 BUTH     121      BUTH     H1       HDA3A    0.900000E-01   1.00800           0   0.00000       0.00000    
     16389 BUTH     121      BUTH     H2       HDA3A    0.900000E-01   1.00800           0   0.00000       0.00000    
     16390 BUTH     121      BUTH     H3       HDA3A    0.900000E-01   1.00800           0   0.00000       0.00000    
     16391 BUTH     121      BUTH     H4       HDA2A    0.900000E-01   1.00800           0   0.00000       0.00000    
     16392 BUTH     121      BUTH     H5       HDA2A    0.900000E-01   1.00800           0   0.00000       0.00000    
     16393 BUTH     121      BUTH     H6       HDA2A    0.900000E-01   1.00800           0   0.00000       0.00000    
     16394 BUTH     121      BUTH     H7       HDA2A    0.900000E-01   1.00800           0   0.00000       0.00000    
     16395 BUTH     121      BUTH     H8       HDP1A    0.430000       1.00800           0   0.00000       0.00000    
     16396 BUTH     121      BUTH     H9       DUMH      0.00000       1.00800           0   0.00000       0.00000    
     16397 BUTH     121      BUTH     LPO11    LPDO1   -0.287000       0.00000          -1   0.00000       0.00000    
     16398 BUTH     121      BUTH     LPO12    LPDO1   -0.288000       0.00000          -1   0.00000       0.00000    
     16399 BUTH     121      BUTH     LPO21    LPD     -0.302000       0.00000          -1   0.00000       0.00000    
     16400 BUTH     121      BUTH     LPO22    LPD     -0.303000       0.00000          -1   0.00000       0.00000    
     16401 BUTH     122      BUTH     C1       CD33A     2.05990       11.6110           0  -1.81190       1.18670    
     16402 BUTH     122      BUTH     DC1      DRUD     -2.33590      0.400000           0   0.00000       0.00000    
     16403 BUTH     122      BUTH     C2       CD32A     2.02070       11.6110           0  -1.59660       1.16930    
     16404 BUTH     122      BUTH     DC2      DRUD     -2.19270      0.400000           0   0.00000       0.00000    
     16405 BUTH     122      BUTH     C3       CD32A     1.98270       11.6110           0  -1.59660       1.16930    
     16406 BUTH     122      BUTH     DC3      DRUD     -2.19270      0.400000           0   0.00000       0.00000    
     16407 BUTH     122      BUTH     C4       CD2O3A    2.72690       11.6110           0  -1.26130       1.05430    
     16408 BUTH     122      BUTH     DC4      DRUD     -1.94890      0.400000           0   0.00000       0.00000    
     16409 BUTH     122      BUTH     O1       OD2C1A    1.46540       15.5994           0 -0.713100      0.569800    
     16410 BUTH     122      BUTH     DO1      DRUD     -1.46540      0.400000           0   0.00000       0.00000    
     16411 BUTH     122      BUTH     O2       OD31A     1.58240       15.5990           0 -0.831500      0.749400    
     16412 BUTH     122      BUTH     DO2      DRUD     -1.58240      0.400000           0   0.00000       0.00000    
     16413 BUTH     122      BUTH     H1       HDA3A    0.900000E-01   1.00800           0   0.00000       0.00000    
     16414 BUTH     122      BUTH     H2       HDA3A    0.900000E-01   1.00800           0   0.00000       0.00000    
     16415 BUTH     122      BUTH     H3       HDA3A    0.900000E-01   1.00800           0   0.00000       0.00000    
     16416 BUTH     122      BUTH     H4       HDA2A    0.900000E-01   1.00800           0   0.00000       0.00000    
     16417 BUTH     122      BUTH     H5       HDA2A    0.900000E-01   1.00800           0   0.00000       0.00000    
     16418 BUTH     122      BUTH     H6       HDA2A    0.900000E-01   1.00800           0   0.00000       0.00000    
     16419 BUTH     122      BUTH     H7       HDA2A    0.900000E-01   1.00800           0   0.00000       0.00000    
     16420 BUTH     122      BUTH     H8       HDP1A    0.430000       1.00800           0   0.00000       0.00000    
     16421 BUTH     122      BUTH     H9       DUMH      0.00000       1.00800           0   0.00000       0.00000    
     16422 BUTH     122      BUTH     LPO11    LPDO1   -0.287000       0.00000          -1   0.00000       0.00000    
     16423 BUTH     122      BUTH     LPO12    LPDO1   -0.288000       0.00000          -1   0.00000       0.00000    
     16424 BUTH     122      BUTH     LPO21    LPD     -0.302000       0.00000          -1   0.00000       0.00000    
     16425 BUTH     122      BUTH     LPO22    LPD     -0.303000       0.00000          -1   0.00000       0.00000    
     16426 BUTH     123      BUTH     C1       CD33A     2.05990       11.6110           0  -1.81190       1.18670    
     16427 BUTH     123      BUTH     DC1      DRUD     -2.33590      0.400000           0   0.00000       0.00000    
     16428 BUTH     123      BUTH     C2       CD32A     2.02070       11.6110           0  -1.59660       1.16930    
     16429 BUTH     123      BUTH     DC2      DRUD     -2.19270      0.400000           0   0.00000       0.00000    
     16430 BUTH     123      BUTH     C3       CD32A     1.98270       11.6110           0  -1.59660       1.16930    
     16431 BUTH     123      BUTH     DC3      DRUD     -2.19270      0.400000           0   0.00000       0.00000    
     16432 BUTH     123      BUTH     C4       CD2O3A    2.72690       11.6110           0  -1.26130       1.05430    
     16433 BUTH     123      BUTH     DC4      DRUD     -1.94890      0.400000           0   0.00000       0.00000    
     16434 BUTH     123      BUTH     O1       OD2C1A    1.46540       15.5994           0 -0.713100      0.569800    
     16435 BUTH     123      BUTH     DO1      DRUD     -1.46540      0.400000           0   0.00000       0.00000    
     16436 BUTH     123      BUTH     O2       OD31A     1.58240       15.5990           0 -0.831500      0.749400    
     16437 BUTH     123      BUTH     DO2      DRUD     -1.58240      0.400000           0   0.00000       0.00000    
     16438 BUTH     123      BUTH     H1       HDA3A    0.900000E-01   1.00800           0   0.00000       0.00000    
     16439 BUTH     123      BUTH     H2       HDA3A    0.900000E-01   1.00800           0   0.00000       0.00000    
     16440 BUTH     123      BUTH     H3       HDA3A    0.900000E-01   1.00800           0   0.00000       0.00000    
     16441 BUTH     123      BUTH     H4       HDA2A    0.900000E-01   1.00800           0   0.00000       0.00000    
     16442 BUTH     123      BUTH     H5       HDA2A    0.900000E-01   1.00800           0   0.00000       0.00000    
     16443 BUTH     123      BUTH     H6       HDA2A    0.900000E-01   1.00800           0   0.00000       0.00000    
     16444 BUTH     123      BUTH     H7       HDA2A    0.900000E-01   1.00800           0   0.00000       0.00000    
     16445 BUTH     123      BUTH     H8       HDP1A    0.430000       1.00800           0   0.00000       0.00000    
     16446 BUTH     123      BUTH     H9       DUMH      0.00000       1.00800           0   0.00000       0.00000    
     16447 BUTH     123      BUTH     LPO11    LPDO1   -0.287000       0.00000          -1   0.00000       0.00000    
     16448 BUTH     123      BUTH     LPO12    LPDO1   -0.288000       0.00000          -1   0.00000       0.00000    
     16449 BUTH     123      BUTH     LPO21    LPD     -0.302000       0.00000          -1   0.00000       0.00000    
     16450 BUTH     123      BUTH     LPO22    LPD     -0.303000       0.00000          -1   0.00000       0.00000    
     16451 BUTH     124      BUTH     C1       CD33A     2.05990       11.6110           0  -1.81190       1.18670    
     16452 BUTH     124      BUTH     DC1      DRUD     -2.33590      0.400000           0   0.00000       0.00000    
     16453 BUTH     124      BUTH     C2       CD32A     2.02070       11.6110           0  -1.59660       1.16930    
     16454 BUTH     124      BUTH     DC2      DRUD     -2.19270      0.400000           0   0.00000       0.00000    
     16455 BUTH     124      BUTH     C3       CD32A     1.98270       11.6110           0  -1.59660       1.16930    
     16456 BUTH     124      BUTH     DC3      DRUD     -2.19270      0.400000           0   0.00000       0.00000    
     16457 BUTH     124      BUTH     C4       CD2O3A    2.72690       11.6110           0  -1.26130       1.05430    
     16458 BUTH     124      BUTH     DC4      DRUD     -1.94890      0.400000           0   0.00000       0.00000    
     16459 BUTH     124      BUTH     O1       OD2C1A    1.46540       15.5994           0 -0.713100      0.569800    
     16460 BUTH     124      BUTH     DO1      DRUD     -1.46540      0.400000           0   0.00000       0.00000    
     16461 BUTH     124      BUTH     O2       OD31A     1.58240       15.5990           0 -0.831500      0.749400    
     16462 BUTH     124      BUTH     DO2      DRUD     -1.58240      0.400000           0   0.00000       0.00000    
     16463 BUTH     124      BUTH     H1       HDA3A    0.900000E-01   1.00800           0   0.00000       0.00000    
     16464 BUTH     124      BUTH     H2       HDA3A    0.900000E-01   1.00800           0   0.00000       0.00000    
     16465 BUTH     124      BUTH     H3       HDA3A    0.900000E-01   1.00800           0   0.00000       0.00000    
     16466 BUTH     124      BUTH     H4       HDA2A    0.900000E-01   1.00800           0   0.00000       0.00000    
     16467 BUTH     124      BUTH     H5       HDA2A    0.900000E-01   1.00800           0   0.00000       0.00000    
     16468 BUTH     124      BUTH     H6       HDA2A    0.900000E-01   1.00800           0   0.00000       0.00000    
     16469 BUTH     124      BUTH     H7       HDA2A    0.900000E-01   1.00800           0   0.00000       0.00000    
     16470 BUTH     124      BUTH     H8       HDP1A    0.430000       1.00800           0   0.00000       0.00000    
     16471 BUTH     124      BUTH     H9       DUMH      0.00000       1.00800           0   0.00000       0.00000    
     16472 BUTH     124      BUTH     LPO11    LPDO1   -0.287000       0.00000          -1   0.00000       0.00000    
     16473 BUTH     124      BUTH     LPO12    LPDO1   -0.288000       0.00000          -1   0.00000       0.00000    
     16474 BUTH     124      BUTH     LPO21    LPD     -0.302000       0.00000          -1   0.00000       0.00000    
     16475 BUTH     124      BUTH     LPO22    LPD     -0.303000       0.00000          -1   0.00000       0.00000    
     16476 BUTH     125      BUTH     C1       CD33A     2.05990       11.6110           0  -1.81190       1.18670    
     16477 BUTH     125      BUTH     DC1      DRUD     -2.33590      0.400000           0   0.00000       0.00000    
     16478 BUTH     125      BUTH     C2       CD32A     2.02070       11.6110           0  -1.59660       1.16930    
     16479 BUTH     125      BUTH     DC2      DRUD     -2.19270      0.400000           0   0.00000       0.00000    
     16480 BUTH     125      BUTH     C3       CD32A     1.98270       11.6110           0  -1.59660       1.16930    
     16481 BUTH     125      BUTH     DC3      DRUD     -2.19270      0.400000           0   0.00000       0.00000    
     16482 BUTH     125      BUTH     C4       CD2O3A    2.72690       11.6110           0  -1.26130       1.05430    
     16483 BUTH     125      BUTH     DC4      DRUD     -1.94890      0.400000           0   0.00000       0.00000    
     16484 BUTH     125      BUTH     O1       OD2C1A    1.46540       15.5994           0 -0.713100      0.569800    
     16485 BUTH     125      BUTH     DO1      DRUD     -1.46540      0.400000           0   0.00000       0.00000    
     16486 BUTH     125      BUTH     O2       OD31A     1.58240       15.5990           0 -0.831500      0.749400    
     16487 BUTH     125      BUTH     DO2      DRUD     -1.58240      0.400000           0   0.00000       0.00000    
     16488 BUTH     125      BUTH     H1       HDA3A    0.900000E-01   1.00800           0   0.00000       0.00000    
     16489 BUTH     125      BUTH     H2       HDA3A    0.900000E-01   1.00800           0   0.00000       0.00000    
     16490 BUTH     125      BUTH     H3       HDA3A    0.900000E-01   1.00800           0   0.00000       0.00000    
     16491 BUTH     125      BUTH     H4       HDA2A    0.900000E-01   1.00800           0   0.00000       0.00000    
     16492 BUTH     125      BUTH     H5       HDA2A    0.900000E-01   1.00800           0   0.00000       0.00000    
     16493 BUTH     125      BUTH     H6       HDA2A    0.900000E-01   1.00800           0   0.00000       0.00000    
     16494 BUTH     125      BUTH     H7       HDA2A    0.900000E-01   1.00800           0   0.00000       0.00000    
     16495 BUTH     125      BUTH     H8       HDP1A    0.430000       1.00800           0   0.00000       0.00000    
     16496 BUTH     125      BUTH     H9       DUMH      0.00000       1.00800           0   0.00000       0.00000    
     16497 BUTH     125      BUTH     LPO11    LPDO1   -0.287000       0.00000          -1   0.00000       0.00000    
     16498 BUTH     125      BUTH     LPO12    LPDO1   -0.288000       0.00000          -1   0.00000       0.00000    
     16499 BUTH     125      BUTH     LPO21    LPD     -0.302000       0.00000          -1   0.00000       0.00000    
     16500 BUTH     125      BUTH     LPO22    LPD     -0.303000       0.00000          -1   0.00000       0.00000    
     16501 BUTH     126      BUTH     C1       CD33A     2.05990       11.6110           0  -1.81190       1.18670    
     16502 BUTH     126      BUTH     DC1      DRUD     -2.33590      0.400000           0   0.00000       0.00000    
     16503 BUTH     126      BUTH     C2       CD32A     2.02070       11.6110           0  -1.59660       1.16930    
     16504 BUTH     126      BUTH     DC2      DRUD     -2.19270      0.400000           0   0.00000       0.00000    
     16505 BUTH     126      BUTH     C3       CD32A     1.98270       11.6110           0  -1.59660       1.16930    
     16506 BUTH     126      BUTH     DC3      DRUD     -2.19270      0.400000           0   0.00000       0.00000    
     16507 BUTH     126      BUTH     C4       CD2O3A    2.72690       11.6110           0  -1.26130       1.05430    
     16508 BUTH     126      BUTH     DC4      DRUD     -1.94890      0.400000           0   0.00000       0.00000    
     16509 BUTH     126      BUTH     O1       OD2C1A    1.46540       15.5994           0 -0.713100      0.569800    
     16510 BUTH     126      BUTH     DO1      DRUD     -1.46540      0.400000           0   0.00000       0.00000    
     16511 BUTH     126      BUTH     O2       OD31A     1.58240       15.5990           0 -0.831500      0.749400    
     16512 BUTH     126      BUTH     DO2      DRUD     -1.58240      0.400000           0   0.00000       0.00000    
     16513 BUTH     126      BUTH     H1       HDA3A    0.900000E-01   1.00800           0   0.00000       0.00000    
     16514 BUTH     126      BUTH     H2       HDA3A    0.900000E-01   1.00800           0   0.00000       0.00000    
     16515 BUTH     126      BUTH     H3       HDA3A    0.900000E-01   1.00800           0   0.00000       0.00000    
     16516 BUTH     126      BUTH     H4       HDA2A    0.900000E-01   1.00800           0   0.00000       0.00000    
     16517 BUTH     126      BUTH     H5       HDA2A    0.900000E-01   1.00800           0   0.00000       0.00000    
     16518 BUTH     126      BUTH     H6       HDA2A    0.900000E-01   1.00800           0   0.00000       0.00000    
     16519 BUTH     126      BUTH     H7       HDA2A    0.900000E-01   1.00800           0   0.00000       0.00000    
     16520 BUTH     126      BUTH     H8       HDP1A    0.430000       1.00800           0   0.00000       0.00000    
     16521 BUTH     126      BUTH     H9       DUMH      0.00000       1.00800           0   0.00000       0.00000    
     16522 BUTH     126      BUTH     LPO11    LPDO1   -0.287000       0.00000          -1   0.00000       0.00000    
     16523 BUTH     126      BUTH     LPO12    LPDO1   -0.288000       0.00000          -1   0.00000       0.00000    
     16524 BUTH     126      BUTH     LPO21    LPD     -0.302000       0.00000          -1   0.00000       0.00000    
     16525 BUTH     126      BUTH     LPO22    LPD     -0.303000       0.00000          -1   0.00000       0.00000    
     16526 BUTH     127      BUTH     C1       CD33A     2.05990       11.6110           0  -1.81190       1.18670    
     16527 BUTH     127      BUTH     DC1      DRUD     -2.33590      0.400000           0   0.00000       0.00000    
     16528 BUTH     127      BUTH     C2       CD32A     2.02070       11.6110           0  -1.59660       1.16930    
     16529 BUTH     127      BUTH     DC2      DRUD     -2.19270      0.400000           0   0.00000       0.00000    
     16530 BUTH     127      BUTH     C3       CD32A     1.98270       11.6110           0  -1.59660       1.16930    
     16531 BUTH     127      BUTH     DC3      DRUD     -2.19270      0.400000           0   0.00000       0.00000    
     16532 BUTH     127      BUTH     C4       CD2O3A    2.72690       11.6110           0  -1.26130       1.05430    
     16533 BUTH     127      BUTH     DC4      DRUD     -1.94890      0.400000           0   0.00000       0.00000    
     16534 BUTH     127      BUTH     O1       OD2C1A    1.46540       15.5994           0 -0.713100      0.569800    
     16535 BUTH     127      BUTH     DO1      DRUD     -1.46540      0.400000           0   0.00000       0.00000    
     16536 BUTH     127      BUTH     O2       OD31A     1.58240       15.5990           0 -0.831500      0.749400    
     16537 BUTH     127      BUTH     DO2      DRUD     -1.58240      0.400000           0   0.00000       0.00000    
     16538 BUTH     127      BUTH     H1       HDA3A    0.900000E-01   1.00800           0   0.00000       0.00000    
     16539 BUTH     127      BUTH     H2       HDA3A    0.900000E-01   1.00800           0   0.00000       0.00000    
     16540 BUTH     127      BUTH     H3       HDA3A    0.900000E-01   1.00800           0   0.00000       0.00000    
     16541 BUTH     127      BUTH     H4       HDA2A    0.900000E-01   1.00800           0   0.00000       0.00000    
     16542 BUTH     127      BUTH     H5       HDA2A    0.900000E-01   1.00800           0   0.00000       0.00000    
     16543 BUTH     127      BUTH     H6       HDA2A    0.900000E-01   1.00800           0   0.00000       0.00000    
     16544 BUTH     127      BUTH     H7       HDA2A    0.900000E-01   1.00800           0   0.00000       0.00000    
     16545 BUTH     127      BUTH     H8       HDP1A    0.430000       1.00800           0   0.00000       0.00000    
     16546 BUTH     127      BUTH     H9       DUMH      0.00000       1.00800           0   0.00000       0.00000    
     16547 BUTH     127      BUTH     LPO11    LPDO1   -0.287000       0.00000          -1   0.00000       0.00000    
     16548 BUTH     127      BUTH     LPO12    LPDO1   -0.288000       0.00000          -1   0.00000       0.00000    
     16549 BUTH     127      BUTH     LPO21    LPD     -0.302000       0.00000          -1   0.00000       0.00000    
     16550 BUTH     127      BUTH     LPO22    LPD     -0.303000       0.00000          -1   0.00000       0.00000    
     16551 BUTH     128      BUTH     C1       CD33A     2.05990       11.6110           0  -1.81190       1.18670    
     16552 BUTH     128      BUTH     DC1      DRUD     -2.33590      0.400000           0   0.00000       0.00000    
     16553 BUTH     128      BUTH     C2       CD32A     2.02070       11.6110           0  -1.59660       1.16930    
     16554 BUTH     128      BUTH     DC2      DRUD     -2.19270      0.400000           0   0.00000       0.00000    
     16555 BUTH     128      BUTH     C3       CD32A     1.98270       11.6110           0  -1.59660       1.16930    
     16556 BUTH     128      BUTH     DC3      DRUD     -2.19270      0.400000           0   0.00000       0.00000    
     16557 BUTH     128      BUTH     C4       CD2O3A    2.72690       11.6110           0  -1.26130       1.05430    
     16558 BUTH     128      BUTH     DC4      DRUD     -1.94890      0.400000           0   0.00000       0.00000    
     16559 BUTH     128      BUTH     O1       OD2C1A    1.46540       15.5994           0 -0.713100      0.569800    
     16560 BUTH     128      BUTH     DO1      DRUD     -1.46540      0.400000           0   0.00000       0.00000    
     16561 BUTH     128      BUTH     O2       OD31A     1.58240       15.5990           0 -0.831500      0.749400    
     16562 BUTH     128      BUTH     DO2      DRUD     -1.58240      0.400000           0   0.00000       0.00000    
     16563 BUTH     128      BUTH     H1       HDA3A    0.900000E-01   1.00800           0   0.00000       0.00000    
     16564 BUTH     128      BUTH     H2       HDA3A    0.900000E-01   1.00800           0   0.00000       0.00000    
     16565 BUTH     128      BUTH     H3       HDA3A    0.900000E-01   1.00800           0   0.00000       0.00000    
     16566 BUTH     128      BUTH     H4       HDA2A    0.900000E-01   1.00800           0   0.00000       0.00000    
     16567 BUTH     128      BUTH     H5       HDA2A    0.900000E-01   1.00800           0   0.00000       0.00000    
     16568 BUTH     128      BUTH     H6       HDA2A    0.900000E-01   1.00800           0   0.00000       0.00000    
     16569 BUTH     128      BUTH     H7       HDA2A    0.900000E-01   1.00800           0   0.00000       0.00000    
     16570 BUTH     128      BUTH     H8       HDP1A    0.430000       1.00800           0   0.00000       0.00000    
     16571 BUTH     128      BUTH     H9       DUMH      0.00000       1.00800           0   0.00000       0.00000    
     16572 BUTH     128      BUTH     LPO11    LPDO1   -0.287000       0.00000          -1   0.00000       0.00000    
     16573 BUTH     128      BUTH     LPO12    LPDO1   -0.288000       0.00000          -1   0.00000       0.00000    
     16574 BUTH     128      BUTH     LPO21    LPD     -0.302000       0.00000          -1   0.00000       0.00000    
     16575 BUTH     128      BUTH     LPO22    LPD     -0.303000       0.00000          -1   0.00000       0.00000    
     16576 BUTH     129      BUTH     C1       CD33A     2.05990       11.6110           0  -1.81190       1.18670    
     16577 BUTH     129      BUTH     DC1      DRUD     -2.33590      0.400000           0   0.00000       0.00000    
     16578 BUTH     129      BUTH     C2       CD32A     2.02070       11.6110           0  -1.59660       1.16930    
     16579 BUTH     129      BUTH     DC2      DRUD     -2.19270      0.400000           0   0.00000       0.00000    
     16580 BUTH     129      BUTH     C3       CD32A     1.98270       11.6110           0  -1.59660       1.16930    
     16581 BUTH     129      BUTH     DC3      DRUD     -2.19270      0.400000           0   0.00000       0.00000    
     16582 BUTH     129      BUTH     C4       CD2O3A    2.72690       11.6110           0  -1.26130       1.05430    
     16583 BUTH     129      BUTH     DC4      DRUD     -1.94890      0.400000           0   0.00000       0.00000    
     16584 BUTH     129      BUTH     O1       OD2C1A    1.46540       15.5994           0 -0.713100      0.569800    
     16585 BUTH     129      BUTH     DO1      DRUD     -1.46540      0.400000           0   0.00000       0.00000    
     16586 BUTH     129      BUTH     O2       OD31A     1.58240       15.5990           0 -0.831500      0.749400    
     16587 BUTH     129      BUTH     DO2      DRUD     -1.58240      0.400000           0   0.00000       0.00000    
     16588 BUTH     129      BUTH     H1       HDA3A    0.900000E-01   1.00800           0   0.00000       0.00000    
     16589 BUTH     129      BUTH     H2       HDA3A    0.900000E-01   1.00800           0   0.00000       0.00000    
     16590 BUTH     129      BUTH     H3       HDA3A    0.900000E-01   1.00800           0   0.00000       0.00000    
     16591 BUTH     129      BUTH     H4       HDA2A    0.900000E-01   1.00800           0   0.00000       0.00000    
     16592 BUTH     129      BUTH     H5       HDA2A    0.900000E-01   1.00800           0   0.00000       0.00000    
     16593 BUTH     129      BUTH     H6       HDA2A    0.900000E-01   1.00800           0   0.00000       0.00000    
     16594 BUTH     129      BUTH     H7       HDA2A    0.900000E-01   1.00800           0   0.00000       0.00000    
     16595 BUTH     129      BUTH     H8       HDP1A    0.430000       1.00800           0   0.00000       0.00000    
     16596 BUTH     129      BUTH     H9       DUMH      0.00000       1.00800           0   0.00000       0.00000    
     16597 BUTH     129      BUTH     LPO11    LPDO1   -0.287000       0.00000          -1   0.00000       0.00000    
     16598 BUTH     129      BUTH     LPO12    LPDO1   -0.288000       0.00000          -1   0.00000       0.00000    
     16599 BUTH     129      BUTH     LPO21    LPD     -0.302000       0.00000          -1   0.00000       0.00000    
     16600 BUTH     129      BUTH     LPO22    LPD     -0.303000       0.00000          -1   0.00000       0.00000    
     16601 BUTH     130      BUTH     C1       CD33A     2.05990       11.6110           0  -1.81190       1.18670    
     16602 BUTH     130      BUTH     DC1      DRUD     -2.33590      0.400000           0   0.00000       0.00000    
     16603 BUTH     130      BUTH     C2       CD32A     2.02070       11.6110           0  -1.59660       1.16930    
     16604 BUTH     130      BUTH     DC2      DRUD     -2.19270      0.400000           0   0.00000       0.00000    
     16605 BUTH     130      BUTH     C3       CD32A     1.98270       11.6110           0  -1.59660       1.16930    
     16606 BUTH     130      BUTH     DC3      DRUD     -2.19270      0.400000           0   0.00000       0.00000    
     16607 BUTH     130      BUTH     C4       CD2O3A    2.72690       11.6110           0  -1.26130       1.05430    
     16608 BUTH     130      BUTH     DC4      DRUD     -1.94890      0.400000           0   0.00000       0.00000    
     16609 BUTH     130      BUTH     O1       OD2C1A    1.46540       15.5994           0 -0.713100      0.569800    
     16610 BUTH     130      BUTH     DO1      DRUD     -1.46540      0.400000           0   0.00000       0.00000    
     16611 BUTH     130      BUTH     O2       OD31A     1.58240       15.5990           0 -0.831500      0.749400    
     16612 BUTH     130      BUTH     DO2      DRUD     -1.58240      0.400000           0   0.00000       0.00000    
     16613 BUTH     130      BUTH     H1       HDA3A    0.900000E-01   1.00800           0   0.00000       0.00000    
     16614 BUTH     130      BUTH     H2       HDA3A    0.900000E-01   1.00800           0   0.00000       0.00000    
     16615 BUTH     130      BUTH     H3       HDA3A    0.900000E-01   1.00800           0   0.00000       0.00000    
     16616 BUTH     130      BUTH     H4       HDA2A    0.900000E-01   1.00800           0   0.00000       0.00000    
     16617 BUTH     130      BUTH     H5       HDA2A    0.900000E-01   1.00800           0   0.00000       0.00000    
     16618 BUTH     130      BUTH     H6       HDA2A    0.900000E-01   1.00800           0   0.00000       0.00000    
     16619 BUTH     130      BUTH     H7       HDA2A    0.900000E-01   1.00800           0   0.00000       0.00000    
     16620 BUTH     130      BUTH     H8       HDP1A    0.430000       1.00800           0   0.00000       0.00000    
     16621 BUTH     130      BUTH     H9       DUMH      0.00000       1.00800           0   0.00000       0.00000    
     16622 BUTH     130      BUTH     LPO11    LPDO1   -0.287000       0.00000          -1   0.00000       0.00000    
     16623 BUTH     130      BUTH     LPO12    LPDO1   -0.288000       0.00000          -1   0.00000       0.00000    
     16624 BUTH     130      BUTH     LPO21    LPD     -0.302000       0.00000          -1   0.00000       0.00000    
     16625 BUTH     130      BUTH     LPO22    LPD     -0.303000       0.00000          -1   0.00000       0.00000    
     16626 BUTH     131      BUTH     C1       CD33A     2.05990       11.6110           0  -1.81190       1.18670    
     16627 BUTH     131      BUTH     DC1      DRUD     -2.33590      0.400000           0   0.00000       0.00000    
     16628 BUTH     131      BUTH     C2       CD32A     2.02070       11.6110           0  -1.59660       1.16930    
     16629 BUTH     131      BUTH     DC2      DRUD     -2.19270      0.400000           0   0.00000       0.00000    
     16630 BUTH     131      BUTH     C3       CD32A     1.98270       11.6110           0  -1.59660       1.16930    
     16631 BUTH     131      BUTH     DC3      DRUD     -2.19270      0.400000           0   0.00000       0.00000    
     16632 BUTH     131      BUTH     C4       CD2O3A    2.72690       11.6110           0  -1.26130       1.05430    
     16633 BUTH     131      BUTH     DC4      DRUD     -1.94890      0.400000           0   0.00000       0.00000    
     16634 BUTH     131      BUTH     O1       OD2C1A    1.46540       15.5994           0 -0.713100      0.569800    
     16635 BUTH     131      BUTH     DO1      DRUD     -1.46540      0.400000           0   0.00000       0.00000    
     16636 BUTH     131      BUTH     O2       OD31A     1.58240       15.5990           0 -0.831500      0.749400    
     16637 BUTH     131      BUTH     DO2      DRUD     -1.58240      0.400000           0   0.00000       0.00000    
     16638 BUTH     131      BUTH     H1       HDA3A    0.900000E-01   1.00800           0   0.00000       0.00000    
     16639 BUTH     131      BUTH     H2       HDA3A    0.900000E-01   1.00800           0   0.00000       0.00000    
     16640 BUTH     131      BUTH     H3       HDA3A    0.900000E-01   1.00800           0   0.00000       0.00000    
     16641 BUTH     131      BUTH     H4       HDA2A    0.900000E-01   1.00800           0   0.00000       0.00000    
     16642 BUTH     131      BUTH     H5       HDA2A    0.900000E-01   1.00800           0   0.00000       0.00000    
     16643 BUTH     131      BUTH     H6       HDA2A    0.900000E-01   1.00800           0   0.00000       0.00000    
     16644 BUTH     131      BUTH     H7       HDA2A    0.900000E-01   1.00800           0   0.00000       0.00000    
     16645 BUTH     131      BUTH     H8       HDP1A    0.430000       1.00800           0   0.00000       0.00000    
     16646 BUTH     131      BUTH     H9       DUMH      0.00000       1.00800           0   0.00000       0.00000    
     16647 BUTH     131      BUTH     LPO11    LPDO1   -0.287000       0.00000          -1   0.00000       0.00000    
     16648 BUTH     131      BUTH     LPO12    LPDO1   -0.288000       0.00000          -1   0.00000       0.00000    
     16649 BUTH     131      BUTH     LPO21    LPD     -0.302000       0.00000          -1   0.00000       0.00000    
     16650 BUTH     131      BUTH     LPO22    LPD     -0.303000       0.00000          -1   0.00000       0.00000    
     16651 BUTH     132      BUTH     C1       CD33A     2.05990       11.6110           0  -1.81190       1.18670    
     16652 BUTH     132      BUTH     DC1      DRUD     -2.33590      0.400000           0   0.00000       0.00000    
     16653 BUTH     132      BUTH     C2       CD32A     2.02070       11.6110           0  -1.59660       1.16930    
     16654 BUTH     132      BUTH     DC2      DRUD     -2.19270      0.400000           0   0.00000       0.00000    
     16655 BUTH     132      BUTH     C3       CD32A     1.98270       11.6110           0  -1.59660       1.16930    
     16656 BUTH     132      BUTH     DC3      DRUD     -2.19270      0.400000           0   0.00000       0.00000    
     16657 BUTH     132      BUTH     C4       CD2O3A    2.72690       11.6110           0  -1.26130       1.05430    
     16658 BUTH     132      BUTH     DC4      DRUD     -1.94890      0.400000           0   0.00000       0.00000    
     16659 BUTH     132      BUTH     O1       OD2C1A    1.46540       15.5994           0 -0.713100      0.569800    
     16660 BUTH     132      BUTH     DO1      DRUD     -1.46540      0.400000           0   0.00000       0.00000    
     16661 BUTH     132      BUTH     O2       OD31A     1.58240       15.5990           0 -0.831500      0.749400    
     16662 BUTH     132      BUTH     DO2      DRUD     -1.58240      0.400000           0   0.00000       0.00000    
     16663 BUTH     132      BUTH     H1       HDA3A    0.900000E-01   1.00800           0   0.00000       0.00000    
     16664 BUTH     132      BUTH     H2       HDA3A    0.900000E-01   1.00800           0   0.00000       0.00000    
     16665 BUTH     132      BUTH     H3       HDA3A    0.900000E-01   1.00800           0   0.00000       0.00000    
     16666 BUTH     132      BUTH     H4       HDA2A    0.900000E-01   1.00800           0   0.00000       0.00000    
     16667 BUTH     132      BUTH     H5       HDA2A    0.900000E-01   1.00800           0   0.00000       0.00000    
     16668 BUTH     132      BUTH     H6       HDA2A    0.900000E-01   1.00800           0   0.00000       0.00000    
     16669 BUTH     132      BUTH     H7       HDA2A    0.900000E-01   1.00800           0   0.00000       0.00000    
     16670 BUTH     132      BUTH     H8       HDP1A    0.430000       1.00800           0   0.00000       0.00000    
     16671 BUTH     132      BUTH     H9       DUMH      0.00000       1.00800           0   0.00000       0.00000    
     16672 BUTH     132      BUTH     LPO11    LPDO1   -0.287000       0.00000          -1   0.00000       0.00000    
     16673 BUTH     132      BUTH     LPO12    LPDO1   -0.288000       0.00000          -1   0.00000       0.00000    
     16674 BUTH     132      BUTH     LPO21    LPD     -0.302000       0.00000          -1   0.00000       0.00000    
     16675 BUTH     132      BUTH     LPO22    LPD     -0.303000       0.00000          -1   0.00000       0.00000    
     16676 BUTH     133      BUTH     C1       CD33A     2.05990       11.6110           0  -1.81190       1.18670    
     16677 BUTH     133      BUTH     DC1      DRUD     -2.33590      0.400000           0   0.00000       0.00000    
     16678 BUTH     133      BUTH     C2       CD32A     2.02070       11.6110           0  -1.59660       1.16930    
     16679 BUTH     133      BUTH     DC2      DRUD     -2.19270      0.400000           0   0.00000       0.00000    
     16680 BUTH     133      BUTH     C3       CD32A     1.98270       11.6110           0  -1.59660       1.16930    
     16681 BUTH     133      BUTH     DC3      DRUD     -2.19270      0.400000           0   0.00000       0.00000    
     16682 BUTH     133      BUTH     C4       CD2O3A    2.72690       11.6110           0  -1.26130       1.05430    
     16683 BUTH     133      BUTH     DC4      DRUD     -1.94890      0.400000           0   0.00000       0.00000    
     16684 BUTH     133      BUTH     O1       OD2C1A    1.46540       15.5994           0 -0.713100      0.569800    
     16685 BUTH     133      BUTH     DO1      DRUD     -1.46540      0.400000           0   0.00000       0.00000    
     16686 BUTH     133      BUTH     O2       OD31A     1.58240       15.5990           0 -0.831500      0.749400    
     16687 BUTH     133      BUTH     DO2      DRUD     -1.58240      0.400000           0   0.00000       0.00000    
     16688 BUTH     133      BUTH     H1       HDA3A    0.900000E-01   1.00800           0   0.00000       0.00000    
     16689 BUTH     133      BUTH     H2       HDA3A    0.900000E-01   1.00800           0   0.00000       0.00000    
     16690 BUTH     133      BUTH     H3       HDA3A    0.900000E-01   1.00800           0   0.00000       0.00000    
     16691 BUTH     133      BUTH     H4       HDA2A    0.900000E-01   1.00800           0   0.00000       0.00000    
     16692 BUTH     133      BUTH     H5       HDA2A    0.900000E-01   1.00800           0   0.00000       0.00000    
     16693 BUTH     133      BUTH     H6       HDA2A    0.900000E-01   1.00800           0   0.00000       0.00000    
     16694 BUTH     133      BUTH     H7       HDA2A    0.900000E-01   1.00800           0   0.00000       0.00000    
     16695 BUTH     133      BUTH     H8       HDP1A    0.430000       1.00800           0   0.00000       0.00000    
     16696 BUTH     133      BUTH     H9       DUMH      0.00000       1.00800           0   0.00000       0.00000    
     16697 BUTH     133      BUTH     LPO11    LPDO1   -0.287000       0.00000          -1   0.00000       0.00000    
     16698 BUTH     133      BUTH     LPO12    LPDO1   -0.288000       0.00000          -1   0.00000       0.00000    
     16699 BUTH     133      BUTH     LPO21    LPD     -0.302000       0.00000          -1   0.00000       0.00000    
     16700 BUTH     133      BUTH     LPO22    LPD     -0.303000       0.00000          -1   0.00000       0.00000    
     16701 BUTH     134      BUTH     C1       CD33A     2.05990       11.6110           0  -1.81190       1.18670    
     16702 BUTH     134      BUTH     DC1      DRUD     -2.33590      0.400000           0   0.00000       0.00000    
     16703 BUTH     134      BUTH     C2       CD32A     2.02070       11.6110           0  -1.59660       1.16930    
     16704 BUTH     134      BUTH     DC2      DRUD     -2.19270      0.400000           0   0.00000       0.00000    
     16705 BUTH     134      BUTH     C3       CD32A     1.98270       11.6110           0  -1.59660       1.16930    
     16706 BUTH     134      BUTH     DC3      DRUD     -2.19270      0.400000           0   0.00000       0.00000    
     16707 BUTH     134      BUTH     C4       CD2O3A    2.72690       11.6110           0  -1.26130       1.05430    
     16708 BUTH     134      BUTH     DC4      DRUD     -1.94890      0.400000           0   0.00000       0.00000    
     16709 BUTH     134      BUTH     O1       OD2C1A    1.46540       15.5994           0 -0.713100      0.569800    
     16710 BUTH     134      BUTH     DO1      DRUD     -1.46540      0.400000           0   0.00000       0.00000    
     16711 BUTH     134      BUTH     O2       OD31A     1.58240       15.5990           0 -0.831500      0.749400    
     16712 BUTH     134      BUTH     DO2      DRUD     -1.58240      0.400000           0   0.00000       0.00000    
     16713 BUTH     134      BUTH     H1       HDA3A    0.900000E-01   1.00800           0   0.00000       0.00000    
     16714 BUTH     134      BUTH     H2       HDA3A    0.900000E-01   1.00800           0   0.00000       0.00000    
     16715 BUTH     134      BUTH     H3       HDA3A    0.900000E-01   1.00800           0   0.00000       0.00000    
     16716 BUTH     134      BUTH     H4       HDA2A    0.900000E-01   1.00800           0   0.00000       0.00000    
     16717 BUTH     134      BUTH     H5       HDA2A    0.900000E-01   1.00800           0   0.00000       0.00000    
     16718 BUTH     134      BUTH     H6       HDA2A    0.900000E-01   1.00800           0   0.00000       0.00000    
     16719 BUTH     134      BUTH     H7       HDA2A    0.900000E-01   1.00800           0   0.00000       0.00000    
     16720 BUTH     134      BUTH     H8       HDP1A    0.430000       1.00800           0   0.00000       0.00000    
     16721 BUTH     134      BUTH     H9       DUMH      0.00000       1.00800           0   0.00000       0.00000    
     16722 BUTH     134      BUTH     LPO11    LPDO1   -0.287000       0.00000          -1   0.00000       0.00000    
     16723 BUTH     134      BUTH     LPO12    LPDO1   -0.288000       0.00000          -1   0.00000       0.00000    
     16724 BUTH     134      BUTH     LPO21    LPD     -0.302000       0.00000          -1   0.00000       0.00000    
     16725 BUTH     134      BUTH     LPO22    LPD     -0.303000       0.00000          -1   0.00000       0.00000    
     16726 BUTH     135      BUTH     C1       CD33A     2.05990       11.6110           0  -1.81190       1.18670    
     16727 BUTH     135      BUTH     DC1      DRUD     -2.33590      0.400000           0   0.00000       0.00000    
     16728 BUTH     135      BUTH     C2       CD32A     2.02070       11.6110           0  -1.59660       1.16930    
     16729 BUTH     135      BUTH     DC2      DRUD     -2.19270      0.400000           0   0.00000       0.00000    
     16730 BUTH     135      BUTH     C3       CD32A     1.98270       11.6110           0  -1.59660       1.16930    
     16731 BUTH     135      BUTH     DC3      DRUD     -2.19270      0.400000           0   0.00000       0.00000    
     16732 BUTH     135      BUTH     C4       CD2O3A    2.72690       11.6110           0  -1.26130       1.05430    
     16733 BUTH     135      BUTH     DC4      DRUD     -1.94890      0.400000           0   0.00000       0.00000    
     16734 BUTH     135      BUTH     O1       OD2C1A    1.46540       15.5994           0 -0.713100      0.569800    
     16735 BUTH     135      BUTH     DO1      DRUD     -1.46540      0.400000           0   0.00000       0.00000    
     16736 BUTH     135      BUTH     O2       OD31A     1.58240       15.5990           0 -0.831500      0.749400    
     16737 BUTH     135      BUTH     DO2      DRUD     -1.58240      0.400000           0   0.00000       0.00000    
     16738 BUTH     135      BUTH     H1       HDA3A    0.900000E-01   1.00800           0   0.00000       0.00000    
     16739 BUTH     135      BUTH     H2       HDA3A    0.900000E-01   1.00800           0   0.00000       0.00000    
     16740 BUTH     135      BUTH     H3       HDA3A    0.900000E-01   1.00800           0   0.00000       0.00000    
     16741 BUTH     135      BUTH     H4       HDA2A    0.900000E-01   1.00800           0   0.00000       0.00000    
     16742 BUTH     135      BUTH     H5       HDA2A    0.900000E-01   1.00800           0   0.00000       0.00000    
     16743 BUTH     135      BUTH     H6       HDA2A    0.900000E-01   1.00800           0   0.00000       0.00000    
     16744 BUTH     135      BUTH     H7       HDA2A    0.900000E-01   1.00800           0   0.00000       0.00000    
     16745 BUTH     135      BUTH     H8       HDP1A    0.430000       1.00800           0   0.00000       0.00000    
     16746 BUTH     135      BUTH     H9       DUMH      0.00000       1.00800           0   0.00000       0.00000    
     16747 BUTH     135      BUTH     LPO11    LPDO1   -0.287000       0.00000          -1   0.00000       0.00000    
     16748 BUTH     135      BUTH     LPO12    LPDO1   -0.288000       0.00000          -1   0.00000       0.00000    
     16749 BUTH     135      BUTH     LPO21    LPD     -0.302000       0.00000          -1   0.00000       0.00000    
     16750 BUTH     135      BUTH     LPO22    LPD     -0.303000       0.00000          -1   0.00000       0.00000    
     16751 BUTH     136      BUTH     C1       CD33A     2.05990       11.6110           0  -1.81190       1.18670    
     16752 BUTH     136      BUTH     DC1      DRUD     -2.33590      0.400000           0   0.00000       0.00000    
     16753 BUTH     136      BUTH     C2       CD32A     2.02070       11.6110           0  -1.59660       1.16930    
     16754 BUTH     136      BUTH     DC2      DRUD     -2.19270      0.400000           0   0.00000       0.00000    
     16755 BUTH     136      BUTH     C3       CD32A     1.98270       11.6110           0  -1.59660       1.16930    
     16756 BUTH     136      BUTH     DC3      DRUD     -2.19270      0.400000           0   0.00000       0.00000    
     16757 BUTH     136      BUTH     C4       CD2O3A    2.72690       11.6110           0  -1.26130       1.05430    
     16758 BUTH     136      BUTH     DC4      DRUD     -1.94890      0.400000           0   0.00000       0.00000    
     16759 BUTH     136      BUTH     O1       OD2C1A    1.46540       15.5994           0 -0.713100      0.569800    
     16760 BUTH     136      BUTH     DO1      DRUD     -1.46540      0.400000           0   0.00000       0.00000    
     16761 BUTH     136      BUTH     O2       OD31A     1.58240       15.5990           0 -0.831500      0.749400    
     16762 BUTH     136      BUTH     DO2      DRUD     -1.58240      0.400000           0   0.00000       0.00000    
     16763 BUTH     136      BUTH     H1       HDA3A    0.900000E-01   1.00800           0   0.00000       0.00000    
     16764 BUTH     136      BUTH     H2       HDA3A    0.900000E-01   1.00800           0   0.00000       0.00000    
     16765 BUTH     136      BUTH     H3       HDA3A    0.900000E-01   1.00800           0   0.00000       0.00000    
     16766 BUTH     136      BUTH     H4       HDA2A    0.900000E-01   1.00800           0   0.00000       0.00000    
     16767 BUTH     136      BUTH     H5       HDA2A    0.900000E-01   1.00800           0   0.00000       0.00000    
     16768 BUTH     136      BUTH     H6       HDA2A    0.900000E-01   1.00800           0   0.00000       0.00000    
     16769 BUTH     136      BUTH     H7       HDA2A    0.900000E-01   1.00800           0   0.00000       0.00000    
     16770 BUTH     136      BUTH     H8       HDP1A    0.430000       1.00800           0   0.00000       0.00000    
     16771 BUTH     136      BUTH     H9       DUMH      0.00000       1.00800           0   0.00000       0.00000    
     16772 BUTH     136      BUTH     LPO11    LPDO1   -0.287000       0.00000          -1   0.00000       0.00000    
     16773 BUTH     136      BUTH     LPO12    LPDO1   -0.288000       0.00000          -1   0.00000       0.00000    
     16774 BUTH     136      BUTH     LPO21    LPD     -0.302000       0.00000          -1   0.00000       0.00000    
     16775 BUTH     136      BUTH     LPO22    LPD     -0.303000       0.00000          -1   0.00000       0.00000    
     16776 BUTH     137      BUTH     C1       CD33A     2.05990       11.6110           0  -1.81190       1.18670    
     16777 BUTH     137      BUTH     DC1      DRUD     -2.33590      0.400000           0   0.00000       0.00000    
     16778 BUTH     137      BUTH     C2       CD32A     2.02070       11.6110           0  -1.59660       1.16930    
     16779 BUTH     137      BUTH     DC2      DRUD     -2.19270      0.400000           0   0.00000       0.00000    
     16780 BUTH     137      BUTH     C3       CD32A     1.98270       11.6110           0  -1.59660       1.16930    
     16781 BUTH     137      BUTH     DC3      DRUD     -2.19270      0.400000           0   0.00000       0.00000    
     16782 BUTH     137      BUTH     C4       CD2O3A    2.72690       11.6110           0  -1.26130       1.05430    
     16783 BUTH     137      BUTH     DC4      DRUD     -1.94890      0.400000           0   0.00000       0.00000    
     16784 BUTH     137      BUTH     O1       OD2C1A    1.46540       15.5994           0 -0.713100      0.569800    
     16785 BUTH     137      BUTH     DO1      DRUD     -1.46540      0.400000           0   0.00000       0.00000    
     16786 BUTH     137      BUTH     O2       OD31A     1.58240       15.5990           0 -0.831500      0.749400    
     16787 BUTH     137      BUTH     DO2      DRUD     -1.58240      0.400000           0   0.00000       0.00000    
     16788 BUTH     137      BUTH     H1       HDA3A    0.900000E-01   1.00800           0   0.00000       0.00000    
     16789 BUTH     137      BUTH     H2       HDA3A    0.900000E-01   1.00800           0   0.00000       0.00000    
     16790 BUTH     137      BUTH     H3       HDA3A    0.900000E-01   1.00800           0   0.00000       0.00000    
     16791 BUTH     137      BUTH     H4       HDA2A    0.900000E-01   1.00800           0   0.00000       0.00000    
     16792 BUTH     137      BUTH     H5       HDA2A    0.900000E-01   1.00800           0   0.00000       0.00000    
     16793 BUTH     137      BUTH     H6       HDA2A    0.900000E-01   1.00800           0   0.00000       0.00000    
     16794 BUTH     137      BUTH     H7       HDA2A    0.900000E-01   1.00800           0   0.00000       0.00000    
     16795 BUTH     137      BUTH     H8       HDP1A    0.430000       1.00800           0   0.00000       0.00000    
     16796 BUTH     137      BUTH     H9       DUMH      0.00000       1.00800           0   0.00000       0.00000    
     16797 BUTH     137      BUTH     LPO11    LPDO1   -0.287000       0.00000          -1   0.00000       0.00000    
     16798 BUTH     137      BUTH     LPO12    LPDO1   -0.288000       0.00000          -1   0.00000       0.00000    
     16799 BUTH     137      BUTH     LPO21    LPD     -0.302000       0.00000          -1   0.00000       0.00000    
     16800 BUTH     137      BUTH     LPO22    LPD     -0.303000       0.00000          -1   0.00000       0.00000    
     16801 BUTH     138      BUTH     C1       CD33A     2.05990       11.6110           0  -1.81190       1.18670    
     16802 BUTH     138      BUTH     DC1      DRUD     -2.33590      0.400000           0   0.00000       0.00000    
     16803 BUTH     138      BUTH     C2       CD32A     2.02070       11.6110           0  -1.59660       1.16930    
     16804 BUTH     138      BUTH     DC2      DRUD     -2.19270      0.400000           0   0.00000       0.00000    
     16805 BUTH     138      BUTH     C3       CD32A     1.98270       11.6110           0  -1.59660       1.16930    
     16806 BUTH     138      BUTH     DC3      DRUD     -2.19270      0.400000           0   0.00000       0.00000    
     16807 BUTH     138      BUTH     C4       CD2O3A    2.72690       11.6110           0  -1.26130       1.05430    
     16808 BUTH     138      BUTH     DC4      DRUD     -1.94890      0.400000           0   0.00000       0.00000    
     16809 BUTH     138      BUTH     O1       OD2C1A    1.46540       15.5994           0 -0.713100      0.569800    
     16810 BUTH     138      BUTH     DO1      DRUD     -1.46540      0.400000           0   0.00000       0.00000    
     16811 BUTH     138      BUTH     O2       OD31A     1.58240       15.5990           0 -0.831500      0.749400    
     16812 BUTH     138      BUTH     DO2      DRUD     -1.58240      0.400000           0   0.00000       0.00000    
     16813 BUTH     138      BUTH     H1       HDA3A    0.900000E-01   1.00800           0   0.00000       0.00000    
     16814 BUTH     138      BUTH     H2       HDA3A    0.900000E-01   1.00800           0   0.00000       0.00000    
     16815 BUTH     138      BUTH     H3       HDA3A    0.900000E-01   1.00800           0   0.00000       0.00000    
     16816 BUTH     138      BUTH     H4       HDA2A    0.900000E-01   1.00800           0   0.00000       0.00000    
     16817 BUTH     138      BUTH     H5       HDA2A    0.900000E-01   1.00800           0   0.00000       0.00000    
     16818 BUTH     138      BUTH     H6       HDA2A    0.900000E-01   1.00800           0   0.00000       0.00000    
     16819 BUTH     138      BUTH     H7       HDA2A    0.900000E-01   1.00800           0   0.00000       0.00000    
     16820 BUTH     138      BUTH     H8       HDP1A    0.430000       1.00800           0   0.00000       0.00000    
     16821 BUTH     138      BUTH     H9       DUMH      0.00000       1.00800           0   0.00000       0.00000    
     16822 BUTH     138      BUTH     LPO11    LPDO1   -0.287000       0.00000          -1   0.00000       0.00000    
     16823 BUTH     138      BUTH     LPO12    LPDO1   -0.288000       0.00000          -1   0.00000       0.00000    
     16824 BUTH     138      BUTH     LPO21    LPD     -0.302000       0.00000          -1   0.00000       0.00000    
     16825 BUTH     138      BUTH     LPO22    LPD     -0.303000       0.00000          -1   0.00000       0.00000    
     16826 BUTH     139      BUTH     C1       CD33A     2.05990       11.6110           0  -1.81190       1.18670    
     16827 BUTH     139      BUTH     DC1      DRUD     -2.33590      0.400000           0   0.00000       0.00000    
     16828 BUTH     139      BUTH     C2       CD32A     2.02070       11.6110           0  -1.59660       1.16930    
     16829 BUTH     139      BUTH     DC2      DRUD     -2.19270      0.400000           0   0.00000       0.00000    
     16830 BUTH     139      BUTH     C3       CD32A     1.98270       11.6110           0  -1.59660       1.16930    
     16831 BUTH     139      BUTH     DC3      DRUD     -2.19270      0.400000           0   0.00000       0.00000    
     16832 BUTH     139      BUTH     C4       CD2O3A    2.72690       11.6110           0  -1.26130       1.05430    
     16833 BUTH     139      BUTH     DC4      DRUD     -1.94890      0.400000           0   0.00000       0.00000    
     16834 BUTH     139      BUTH     O1       OD2C1A    1.46540       15.5994           0 -0.713100      0.569800    
     16835 BUTH     139      BUTH     DO1      DRUD     -1.46540      0.400000           0   0.00000       0.00000    
     16836 BUTH     139      BUTH     O2       OD31A     1.58240       15.5990           0 -0.831500      0.749400    
     16837 BUTH     139      BUTH     DO2      DRUD     -1.58240      0.400000           0   0.00000       0.00000    
     16838 BUTH     139      BUTH     H1       HDA3A    0.900000E-01   1.00800           0   0.00000       0.00000    
     16839 BUTH     139      BUTH     H2       HDA3A    0.900000E-01   1.00800           0   0.00000       0.00000    
     16840 BUTH     139      BUTH     H3       HDA3A    0.900000E-01   1.00800           0   0.00000       0.00000    
     16841 BUTH     139      BUTH     H4       HDA2A    0.900000E-01   1.00800           0   0.00000       0.00000    
     16842 BUTH     139      BUTH     H5       HDA2A    0.900000E-01   1.00800           0   0.00000       0.00000    
     16843 BUTH     139      BUTH     H6       HDA2A    0.900000E-01   1.00800           0   0.00000       0.00000    
     16844 BUTH     139      BUTH     H7       HDA2A    0.900000E-01   1.00800           0   0.00000       0.00000    
     16845 BUTH     139      BUTH     H8       HDP1A    0.430000       1.00800           0   0.00000       0.00000    
     16846 BUTH     139      BUTH     H9       DUMH      0.00000       1.00800           0   0.00000       0.00000    
     16847 BUTH     139      BUTH     LPO11    LPDO1   -0.287000       0.00000          -1   0.00000       0.00000    
     16848 BUTH     139      BUTH     LPO12    LPDO1   -0.288000       0.00000          -1   0.00000       0.00000    
     16849 BUTH     139      BUTH     LPO21    LPD     -0.302000       0.00000          -1   0.00000       0.00000    
     16850 BUTH     139      BUTH     LPO22    LPD     -0.303000       0.00000          -1   0.00000       0.00000    
     16851 BUTH     140      BUTH     C1       CD33A     2.05990       11.6110           0  -1.81190       1.18670    
     16852 BUTH     140      BUTH     DC1      DRUD     -2.33590      0.400000           0   0.00000       0.00000    
     16853 BUTH     140      BUTH     C2       CD32A     2.02070       11.6110           0  -1.59660       1.16930    
     16854 BUTH     140      BUTH     DC2      DRUD     -2.19270      0.400000           0   0.00000       0.00000    
     16855 BUTH     140      BUTH     C3       CD32A     1.98270       11.6110           0  -1.59660       1.16930    
     16856 BUTH     140      BUTH     DC3      DRUD     -2.19270      0.400000           0   0.00000       0.00000    
     16857 BUTH     140      BUTH     C4       CD2O3A    2.72690       11.6110           0  -1.26130       1.05430    
     16858 BUTH     140      BUTH     DC4      DRUD     -1.94890      0.400000           0   0.00000       0.00000    
     16859 BUTH     140      BUTH     O1       OD2C1A    1.46540       15.5994           0 -0.713100      0.569800    
     16860 BUTH     140      BUTH     DO1      DRUD     -1.46540      0.400000           0   0.00000       0.00000    
     16861 BUTH     140      BUTH     O2       OD31A     1.58240       15.5990           0 -0.831500      0.749400    
     16862 BUTH     140      BUTH     DO2      DRUD     -1.58240      0.400000           0   0.00000       0.00000    
     16863 BUTH     140      BUTH     H1       HDA3A    0.900000E-01   1.00800           0   0.00000       0.00000    
     16864 BUTH     140      BUTH     H2       HDA3A    0.900000E-01   1.00800           0   0.00000       0.00000    
     16865 BUTH     140      BUTH     H3       HDA3A    0.900000E-01   1.00800           0   0.00000       0.00000    
     16866 BUTH     140      BUTH     H4       HDA2A    0.900000E-01   1.00800           0   0.00000       0.00000    
     16867 BUTH     140      BUTH     H5       HDA2A    0.900000E-01   1.00800           0   0.00000       0.00000    
     16868 BUTH     140      BUTH     H6       HDA2A    0.900000E-01   1.00800           0   0.00000       0.00000    
     16869 BUTH     140      BUTH     H7       HDA2A    0.900000E-01   1.00800           0   0.00000       0.00000    
     16870 BUTH     140      BUTH     H8       HDP1A    0.430000       1.00800           0   0.00000       0.00000    
     16871 BUTH     140      BUTH     H9       DUMH      0.00000       1.00800           0   0.00000       0.00000    
     16872 BUTH     140      BUTH     LPO11    LPDO1   -0.287000       0.00000          -1   0.00000       0.00000    
     16873 BUTH     140      BUTH     LPO12    LPDO1   -0.288000       0.00000          -1   0.00000       0.00000    
     16874 BUTH     140      BUTH     LPO21    LPD     -0.302000       0.00000          -1   0.00000       0.00000    
     16875 BUTH     140      BUTH     LPO22    LPD     -0.303000       0.00000          -1   0.00000       0.00000    
     16876 BUTH     141      BUTH     C1       CD33A     2.05990       11.6110           0  -1.81190       1.18670    
     16877 BUTH     141      BUTH     DC1      DRUD     -2.33590      0.400000           0   0.00000       0.00000    
     16878 BUTH     141      BUTH     C2       CD32A     2.02070       11.6110           0  -1.59660       1.16930    
     16879 BUTH     141      BUTH     DC2      DRUD     -2.19270      0.400000           0   0.00000       0.00000    
     16880 BUTH     141      BUTH     C3       CD32A     1.98270       11.6110           0  -1.59660       1.16930    
     16881 BUTH     141      BUTH     DC3      DRUD     -2.19270      0.400000           0   0.00000       0.00000    
     16882 BUTH     141      BUTH     C4       CD2O3A    2.72690       11.6110           0  -1.26130       1.05430    
     16883 BUTH     141      BUTH     DC4      DRUD     -1.94890      0.400000           0   0.00000       0.00000    
     16884 BUTH     141      BUTH     O1       OD2C1A    1.46540       15.5994           0 -0.713100      0.569800    
     16885 BUTH     141      BUTH     DO1      DRUD     -1.46540      0.400000           0   0.00000       0.00000    
     16886 BUTH     141      BUTH     O2       OD31A     1.58240       15.5990           0 -0.831500      0.749400    
     16887 BUTH     141      BUTH     DO2      DRUD     -1.58240      0.400000           0   0.00000       0.00000    
     16888 BUTH     141      BUTH     H1       HDA3A    0.900000E-01   1.00800           0   0.00000       0.00000    
     16889 BUTH     141      BUTH     H2       HDA3A    0.900000E-01   1.00800           0   0.00000       0.00000    
     16890 BUTH     141      BUTH     H3       HDA3A    0.900000E-01   1.00800           0   0.00000       0.00000    
     16891 BUTH     141      BUTH     H4       HDA2A    0.900000E-01   1.00800           0   0.00000       0.00000    
     16892 BUTH     141      BUTH     H5       HDA2A    0.900000E-01   1.00800           0   0.00000       0.00000    
     16893 BUTH     141      BUTH     H6       HDA2A    0.900000E-01   1.00800           0   0.00000       0.00000    
     16894 BUTH     141      BUTH     H7       HDA2A    0.900000E-01   1.00800           0   0.00000       0.00000    
     16895 BUTH     141      BUTH     H8       HDP1A    0.430000       1.00800           0   0.00000       0.00000    
     16896 BUTH     141      BUTH     H9       DUMH      0.00000       1.00800           0   0.00000       0.00000    
     16897 BUTH     141      BUTH     LPO11    LPDO1   -0.287000       0.00000          -1   0.00000       0.00000    
     16898 BUTH     141      BUTH     LPO12    LPDO1   -0.288000       0.00000          -1   0.00000       0.00000    
     16899 BUTH     141      BUTH     LPO21    LPD     -0.302000       0.00000          -1   0.00000       0.00000    
     16900 BUTH     141      BUTH     LPO22    LPD     -0.303000       0.00000          -1   0.00000       0.00000    
     16901 BUTH     142      BUTH     C1       CD33A     2.05990       11.6110           0  -1.81190       1.18670    
     16902 BUTH     142      BUTH     DC1      DRUD     -2.33590      0.400000           0   0.00000       0.00000    
     16903 BUTH     142      BUTH     C2       CD32A     2.02070       11.6110           0  -1.59660       1.16930    
     16904 BUTH     142      BUTH     DC2      DRUD     -2.19270      0.400000           0   0.00000       0.00000    
     16905 BUTH     142      BUTH     C3       CD32A     1.98270       11.6110           0  -1.59660       1.16930    
     16906 BUTH     142      BUTH     DC3      DRUD     -2.19270      0.400000           0   0.00000       0.00000    
     16907 BUTH     142      BUTH     C4       CD2O3A    2.72690       11.6110           0  -1.26130       1.05430    
     16908 BUTH     142      BUTH     DC4      DRUD     -1.94890      0.400000           0   0.00000       0.00000    
     16909 BUTH     142      BUTH     O1       OD2C1A    1.46540       15.5994           0 -0.713100      0.569800    
     16910 BUTH     142      BUTH     DO1      DRUD     -1.46540      0.400000           0   0.00000       0.00000    
     16911 BUTH     142      BUTH     O2       OD31A     1.58240       15.5990           0 -0.831500      0.749400    
     16912 BUTH     142      BUTH     DO2      DRUD     -1.58240      0.400000           0   0.00000       0.00000    
     16913 BUTH     142      BUTH     H1       HDA3A    0.900000E-01   1.00800           0   0.00000       0.00000    
     16914 BUTH     142      BUTH     H2       HDA3A    0.900000E-01   1.00800           0   0.00000       0.00000    
     16915 BUTH     142      BUTH     H3       HDA3A    0.900000E-01   1.00800           0   0.00000       0.00000    
     16916 BUTH     142      BUTH     H4       HDA2A    0.900000E-01   1.00800           0   0.00000       0.00000    
     16917 BUTH     142      BUTH     H5       HDA2A    0.900000E-01   1.00800           0   0.00000       0.00000    
     16918 BUTH     142      BUTH     H6       HDA2A    0.900000E-01   1.00800           0   0.00000       0.00000    
     16919 BUTH     142      BUTH     H7       HDA2A    0.900000E-01   1.00800           0   0.00000       0.00000    
     16920 BUTH     142      BUTH     H8       HDP1A    0.430000       1.00800           0   0.00000       0.00000    
     16921 BUTH     142      BUTH     H9       DUMH      0.00000       1.00800           0   0.00000       0.00000    
     16922 BUTH     142      BUTH     LPO11    LPDO1   -0.287000       0.00000          -1   0.00000       0.00000    
     16923 BUTH     142      BUTH     LPO12    LPDO1   -0.288000       0.00000          -1   0.00000       0.00000    
     16924 BUTH     142      BUTH     LPO21    LPD     -0.302000       0.00000          -1   0.00000       0.00000    
     16925 BUTH     142      BUTH     LPO22    LPD     -0.303000       0.00000          -1   0.00000       0.00000    
     16926 BUTH     143      BUTH     C1       CD33A     2.05990       11.6110           0  -1.81190       1.18670    
     16927 BUTH     143      BUTH     DC1      DRUD     -2.33590      0.400000           0   0.00000       0.00000    
     16928 BUTH     143      BUTH     C2       CD32A     2.02070       11.6110           0  -1.59660       1.16930    
     16929 BUTH     143      BUTH     DC2      DRUD     -2.19270      0.400000           0   0.00000       0.00000    
     16930 BUTH     143      BUTH     C3       CD32A     1.98270       11.6110           0  -1.59660       1.16930    
     16931 BUTH     143      BUTH     DC3      DRUD     -2.19270      0.400000           0   0.00000       0.00000    
     16932 BUTH     143      BUTH     C4       CD2O3A    2.72690       11.6110           0  -1.26130       1.05430    
     16933 BUTH     143      BUTH     DC4      DRUD     -1.94890      0.400000           0   0.00000       0.00000    
     16934 BUTH     143      BUTH     O1       OD2C1A    1.46540       15.5994           0 -0.713100      0.569800    
     16935 BUTH     143      BUTH     DO1      DRUD     -1.46540      0.400000           0   0.00000       0.00000    
     16936 BUTH     143      BUTH     O2       OD31A     1.58240       15.5990           0 -0.831500      0.749400    
     16937 BUTH     143      BUTH     DO2      DRUD     -1.58240      0.400000           0   0.00000       0.00000    
     16938 BUTH     143      BUTH     H1       HDA3A    0.900000E-01   1.00800           0   0.00000       0.00000    
     16939 BUTH     143      BUTH     H2       HDA3A    0.900000E-01   1.00800           0   0.00000       0.00000    
     16940 BUTH     143      BUTH     H3       HDA3A    0.900000E-01   1.00800           0   0.00000       0.00000    
     16941 BUTH     143      BUTH     H4       HDA2A    0.900000E-01   1.00800           0   0.00000       0.00000    
     16942 BUTH     143      BUTH     H5       HDA2A    0.900000E-01   1.00800           0   0.00000       0.00000    
     16943 BUTH     143      BUTH     H6       HDA2A    0.900000E-01   1.00800           0   0.00000       0.00000    
     16944 BUTH     143      BUTH     H7       HDA2A    0.900000E-01   1.00800           0   0.00000       0.00000    
     16945 BUTH     143      BUTH     H8       HDP1A    0.430000       1.00800           0   0.00000       0.00000    
     16946 BUTH     143      BUTH     H9       DUMH      0.00000       1.00800           0   0.00000       0.00000    
     16947 BUTH     143      BUTH     LPO11    LPDO1   -0.287000       0.00000          -1   0.00000       0.00000    
     16948 BUTH     143      BUTH     LPO12    LPDO1   -0.288000       0.00000          -1   0.00000       0.00000    
     16949 BUTH     143      BUTH     LPO21    LPD     -0.302000       0.00000          -1   0.00000       0.00000    
     16950 BUTH     143      BUTH     LPO22    LPD     -0.303000       0.00000          -1   0.00000       0.00000    
     16951 BUTH     144      BUTH     C1       CD33A     2.05990       11.6110           0  -1.81190       1.18670    
     16952 BUTH     144      BUTH     DC1      DRUD     -2.33590      0.400000           0   0.00000       0.00000    
     16953 BUTH     144      BUTH     C2       CD32A     2.02070       11.6110           0  -1.59660       1.16930    
     16954 BUTH     144      BUTH     DC2      DRUD     -2.19270      0.400000           0   0.00000       0.00000    
     16955 BUTH     144      BUTH     C3       CD32A     1.98270       11.6110           0  -1.59660       1.16930    
     16956 BUTH     144      BUTH     DC3      DRUD     -2.19270      0.400000           0   0.00000       0.00000    
     16957 BUTH     144      BUTH     C4       CD2O3A    2.72690       11.6110           0  -1.26130       1.05430    
     16958 BUTH     144      BUTH     DC4      DRUD     -1.94890      0.400000           0   0.00000       0.00000    
     16959 BUTH     144      BUTH     O1       OD2C1A    1.46540       15.5994           0 -0.713100      0.569800    
     16960 BUTH     144      BUTH     DO1      DRUD     -1.46540      0.400000           0   0.00000       0.00000    
     16961 BUTH     144      BUTH     O2       OD31A     1.58240       15.5990           0 -0.831500      0.749400    
     16962 BUTH     144      BUTH     DO2      DRUD     -1.58240      0.400000           0   0.00000       0.00000    
     16963 BUTH     144      BUTH     H1       HDA3A    0.900000E-01   1.00800           0   0.00000       0.00000    
     16964 BUTH     144      BUTH     H2       HDA3A    0.900000E-01   1.00800           0   0.00000       0.00000    
     16965 BUTH     144      BUTH     H3       HDA3A    0.900000E-01   1.00800           0   0.00000       0.00000    
     16966 BUTH     144      BUTH     H4       HDA2A    0.900000E-01   1.00800           0   0.00000       0.00000    
     16967 BUTH     144      BUTH     H5       HDA2A    0.900000E-01   1.00800           0   0.00000       0.00000    
     16968 BUTH     144      BUTH     H6       HDA2A    0.900000E-01   1.00800           0   0.00000       0.00000    
     16969 BUTH     144      BUTH     H7       HDA2A    0.900000E-01   1.00800           0   0.00000       0.00000    
     16970 BUTH     144      BUTH     H8       HDP1A    0.430000       1.00800           0   0.00000       0.00000    
     16971 BUTH     144      BUTH     H9       DUMH      0.00000       1.00800           0   0.00000       0.00000    
     16972 BUTH     144      BUTH     LPO11    LPDO1   -0.287000       0.00000          -1   0.00000       0.00000    
     16973 BUTH     144      BUTH     LPO12    LPDO1   -0.288000       0.00000          -1   0.00000       0.00000    
     16974 BUTH     144      BUTH     LPO21    LPD     -0.302000       0.00000          -1   0.00000       0.00000    
     16975 BUTH     144      BUTH     LPO22    LPD     -0.303000       0.00000          -1   0.00000       0.00000    
     16976 BUTH     145      BUTH     C1       CD33A     2.05990       11.6110           0  -1.81190       1.18670    
     16977 BUTH     145      BUTH     DC1      DRUD     -2.33590      0.400000           0   0.00000       0.00000    
     16978 BUTH     145      BUTH     C2       CD32A     2.02070       11.6110           0  -1.59660       1.16930    
     16979 BUTH     145      BUTH     DC2      DRUD     -2.19270      0.400000           0   0.00000       0.00000    
     16980 BUTH     145      BUTH     C3       CD32A     1.98270       11.6110           0  -1.59660       1.16930    
     16981 BUTH     145      BUTH     DC3      DRUD     -2.19270      0.400000           0   0.00000       0.00000    
     16982 BUTH     145      BUTH     C4       CD2O3A    2.72690       11.6110           0  -1.26130       1.05430    
     16983 BUTH     145      BUTH     DC4      DRUD     -1.94890      0.400000           0   0.00000       0.00000    
     16984 BUTH     145      BUTH     O1       OD2C1A    1.46540       15.5994           0 -0.713100      0.569800    
     16985 BUTH     145      BUTH     DO1      DRUD     -1.46540      0.400000           0   0.00000       0.00000    
     16986 BUTH     145      BUTH     O2       OD31A     1.58240       15.5990           0 -0.831500      0.749400    
     16987 BUTH     145      BUTH     DO2      DRUD     -1.58240      0.400000           0   0.00000       0.00000    
     16988 BUTH     145      BUTH     H1       HDA3A    0.900000E-01   1.00800           0   0.00000       0.00000    
     16989 BUTH     145      BUTH     H2       HDA3A    0.900000E-01   1.00800           0   0.00000       0.00000    
     16990 BUTH     145      BUTH     H3       HDA3A    0.900000E-01   1.00800           0   0.00000       0.00000    
     16991 BUTH     145      BUTH     H4       HDA2A    0.900000E-01   1.00800           0   0.00000       0.00000    
     16992 BUTH     145      BUTH     H5       HDA2A    0.900000E-01   1.00800           0   0.00000       0.00000    
     16993 BUTH     145      BUTH     H6       HDA2A    0.900000E-01   1.00800           0   0.00000       0.00000    
     16994 BUTH     145      BUTH     H7       HDA2A    0.900000E-01   1.00800           0   0.00000       0.00000    
     16995 BUTH     145      BUTH     H8       HDP1A    0.430000       1.00800           0   0.00000       0.00000    
     16996 BUTH     145      BUTH     H9       DUMH      0.00000       1.00800           0   0.00000       0.00000    
     16997 BUTH     145      BUTH     LPO11    LPDO1   -0.287000       0.00000          -1   0.00000       0.00000    
     16998 BUTH     145      BUTH     LPO12    LPDO1   -0.288000       0.00000          -1   0.00000       0.00000    
     16999 BUTH     145      BUTH     LPO21    LPD     -0.302000       0.00000          -1   0.00000       0.00000    
     17000 BUTH     145      BUTH     LPO22    LPD     -0.303000       0.00000          -1   0.00000       0.00000    
     17001 BUTH     146      BUTH     C1       CD33A     2.05990       11.6110           0  -1.81190       1.18670    
     17002 BUTH     146      BUTH     DC1      DRUD     -2.33590      0.400000           0   0.00000       0.00000    
     17003 BUTH     146      BUTH     C2       CD32A     2.02070       11.6110           0  -1.59660       1.16930    
     17004 BUTH     146      BUTH     DC2      DRUD     -2.19270      0.400000           0   0.00000       0.00000    
     17005 BUTH     146      BUTH     C3       CD32A     1.98270       11.6110           0  -1.59660       1.16930    
     17006 BUTH     146      BUTH     DC3      DRUD     -2.19270      0.400000           0   0.00000       0.00000    
     17007 BUTH     146      BUTH     C4       CD2O3A    2.72690       11.6110           0  -1.26130       1.05430    
     17008 BUTH     146      BUTH     DC4      DRUD     -1.94890      0.400000           0   0.00000       0.00000    
     17009 BUTH     146      BUTH     O1       OD2C1A    1.46540       15.5994           0 -0.713100      0.569800    
     17010 BUTH     146      BUTH     DO1      DRUD     -1.46540      0.400000           0   0.00000       0.00000    
     17011 BUTH     146      BUTH     O2       OD31A     1.58240       15.5990           0 -0.831500      0.749400    
     17012 BUTH     146      BUTH     DO2      DRUD     -1.58240      0.400000           0   0.00000       0.00000    
     17013 BUTH     146      BUTH     H1       HDA3A    0.900000E-01   1.00800           0   0.00000       0.00000    
     17014 BUTH     146      BUTH     H2       HDA3A    0.900000E-01   1.00800           0   0.00000       0.00000    
     17015 BUTH     146      BUTH     H3       HDA3A    0.900000E-01   1.00800           0   0.00000       0.00000    
     17016 BUTH     146      BUTH     H4       HDA2A    0.900000E-01   1.00800           0   0.00000       0.00000    
     17017 BUTH     146      BUTH     H5       HDA2A    0.900000E-01   1.00800           0   0.00000       0.00000    
     17018 BUTH     146      BUTH     H6       HDA2A    0.900000E-01   1.00800           0   0.00000       0.00000    
     17019 BUTH     146      BUTH     H7       HDA2A    0.900000E-01   1.00800           0   0.00000       0.00000    
     17020 BUTH     146      BUTH     H8       HDP1A    0.430000       1.00800           0   0.00000       0.00000    
     17021 BUTH     146      BUTH     H9       DUMH      0.00000       1.00800           0   0.00000       0.00000    
     17022 BUTH     146      BUTH     LPO11    LPDO1   -0.287000       0.00000          -1   0.00000       0.00000    
     17023 BUTH     146      BUTH     LPO12    LPDO1   -0.288000       0.00000          -1   0.00000       0.00000    
     17024 BUTH     146      BUTH     LPO21    LPD     -0.302000       0.00000          -1   0.00000       0.00000    
     17025 BUTH     146      BUTH     LPO22    LPD     -0.303000       0.00000          -1   0.00000       0.00000    
     17026 BUTH     147      BUTH     C1       CD33A     2.05990       11.6110           0  -1.81190       1.18670    
     17027 BUTH     147      BUTH     DC1      DRUD     -2.33590      0.400000           0   0.00000       0.00000    
     17028 BUTH     147      BUTH     C2       CD32A     2.02070       11.6110           0  -1.59660       1.16930    
     17029 BUTH     147      BUTH     DC2      DRUD     -2.19270      0.400000           0   0.00000       0.00000    
     17030 BUTH     147      BUTH     C3       CD32A     1.98270       11.6110           0  -1.59660       1.16930    
     17031 BUTH     147      BUTH     DC3      DRUD     -2.19270      0.400000           0   0.00000       0.00000    
     17032 BUTH     147      BUTH     C4       CD2O3A    2.72690       11.6110           0  -1.26130       1.05430    
     17033 BUTH     147      BUTH     DC4      DRUD     -1.94890      0.400000           0   0.00000       0.00000    
     17034 BUTH     147      BUTH     O1       OD2C1A    1.46540       15.5994           0 -0.713100      0.569800    
     17035 BUTH     147      BUTH     DO1      DRUD     -1.46540      0.400000           0   0.00000       0.00000    
     17036 BUTH     147      BUTH     O2       OD31A     1.58240       15.5990           0 -0.831500      0.749400    
     17037 BUTH     147      BUTH     DO2      DRUD     -1.58240      0.400000           0   0.00000       0.00000    
     17038 BUTH     147      BUTH     H1       HDA3A    0.900000E-01   1.00800           0   0.00000       0.00000    
     17039 BUTH     147      BUTH     H2       HDA3A    0.900000E-01   1.00800           0   0.00000       0.00000    
     17040 BUTH     147      BUTH     H3       HDA3A    0.900000E-01   1.00800           0   0.00000       0.00000    
     17041 BUTH     147      BUTH     H4       HDA2A    0.900000E-01   1.00800           0   0.00000       0.00000    
     17042 BUTH     147      BUTH     H5       HDA2A    0.900000E-01   1.00800           0   0.00000       0.00000    
     17043 BUTH     147      BUTH     H6       HDA2A    0.900000E-01   1.00800           0   0.00000       0.00000    
     17044 BUTH     147      BUTH     H7       HDA2A    0.900000E-01   1.00800           0   0.00000       0.00000    
     17045 BUTH     147      BUTH     H8       HDP1A    0.430000       1.00800           0   0.00000       0.00000    
     17046 BUTH     147      BUTH     H9       DUMH      0.00000       1.00800           0   0.00000       0.00000    
     17047 BUTH     147      BUTH     LPO11    LPDO1   -0.287000       0.00000          -1   0.00000       0.00000    
     17048 BUTH     147      BUTH     LPO12    LPDO1   -0.288000       0.00000          -1   0.00000       0.00000    
     17049 BUTH     147      BUTH     LPO21    LPD     -0.302000       0.00000          -1   0.00000       0.00000    
     17050 BUTH     147      BUTH     LPO22    LPD     -0.303000       0.00000          -1   0.00000       0.00000    
     17051 BUTH     148      BUTH     C1       CD33A     2.05990       11.6110           0  -1.81190       1.18670    
     17052 BUTH     148      BUTH     DC1      DRUD     -2.33590      0.400000           0   0.00000       0.00000    
     17053 BUTH     148      BUTH     C2       CD32A     2.02070       11.6110           0  -1.59660       1.16930    
     17054 BUTH     148      BUTH     DC2      DRUD     -2.19270      0.400000           0   0.00000       0.00000    
     17055 BUTH     148      BUTH     C3       CD32A     1.98270       11.6110           0  -1.59660       1.16930    
     17056 BUTH     148      BUTH     DC3      DRUD     -2.19270      0.400000           0   0.00000       0.00000    
     17057 BUTH     148      BUTH     C4       CD2O3A    2.72690       11.6110           0  -1.26130       1.05430    
     17058 BUTH     148      BUTH     DC4      DRUD     -1.94890      0.400000           0   0.00000       0.00000    
     17059 BUTH     148      BUTH     O1       OD2C1A    1.46540       15.5994           0 -0.713100      0.569800    
     17060 BUTH     148      BUTH     DO1      DRUD     -1.46540      0.400000           0   0.00000       0.00000    
     17061 BUTH     148      BUTH     O2       OD31A     1.58240       15.5990           0 -0.831500      0.749400    
     17062 BUTH     148      BUTH     DO2      DRUD     -1.58240      0.400000           0   0.00000       0.00000    
     17063 BUTH     148      BUTH     H1       HDA3A    0.900000E-01   1.00800           0   0.00000       0.00000    
     17064 BUTH     148      BUTH     H2       HDA3A    0.900000E-01   1.00800           0   0.00000       0.00000    
     17065 BUTH     148      BUTH     H3       HDA3A    0.900000E-01   1.00800           0   0.00000       0.00000    
     17066 BUTH     148      BUTH     H4       HDA2A    0.900000E-01   1.00800           0   0.00000       0.00000    
     17067 BUTH     148      BUTH     H5       HDA2A    0.900000E-01   1.00800           0   0.00000       0.00000    
     17068 BUTH     148      BUTH     H6       HDA2A    0.900000E-01   1.00800           0   0.00000       0.00000    
     17069 BUTH     148      BUTH     H7       HDA2A    0.900000E-01   1.00800           0   0.00000       0.00000    
     17070 BUTH     148      BUTH     H8       HDP1A    0.430000       1.00800           0   0.00000       0.00000    
     17071 BUTH     148      BUTH     H9       DUMH      0.00000       1.00800           0   0.00000       0.00000    
     17072 BUTH     148      BUTH     LPO11    LPDO1   -0.287000       0.00000          -1   0.00000       0.00000    
     17073 BUTH     148      BUTH     LPO12    LPDO1   -0.288000       0.00000          -1   0.00000       0.00000    
     17074 BUTH     148      BUTH     LPO21    LPD     -0.302000       0.00000          -1   0.00000       0.00000    
     17075 BUTH     148      BUTH     LPO22    LPD     -0.303000       0.00000          -1   0.00000       0.00000    
     17076 BUTH     149      BUTH     C1       CD33A     2.05990       11.6110           0  -1.81190       1.18670    
     17077 BUTH     149      BUTH     DC1      DRUD     -2.33590      0.400000           0   0.00000       0.00000    
     17078 BUTH     149      BUTH     C2       CD32A     2.02070       11.6110           0  -1.59660       1.16930    
     17079 BUTH     149      BUTH     DC2      DRUD     -2.19270      0.400000           0   0.00000       0.00000    
     17080 BUTH     149      BUTH     C3       CD32A     1.98270       11.6110           0  -1.59660       1.16930    
     17081 BUTH     149      BUTH     DC3      DRUD     -2.19270      0.400000           0   0.00000       0.00000    
     17082 BUTH     149      BUTH     C4       CD2O3A    2.72690       11.6110           0  -1.26130       1.05430    
     17083 BUTH     149      BUTH     DC4      DRUD     -1.94890      0.400000           0   0.00000       0.00000    
     17084 BUTH     149      BUTH     O1       OD2C1A    1.46540       15.5994           0 -0.713100      0.569800    
     17085 BUTH     149      BUTH     DO1      DRUD     -1.46540      0.400000           0   0.00000       0.00000    
     17086 BUTH     149      BUTH     O2       OD31A     1.58240       15.5990           0 -0.831500      0.749400    
     17087 BUTH     149      BUTH     DO2      DRUD     -1.58240      0.400000           0   0.00000       0.00000    
     17088 BUTH     149      BUTH     H1       HDA3A    0.900000E-01   1.00800           0   0.00000       0.00000    
     17089 BUTH     149      BUTH     H2       HDA3A    0.900000E-01   1.00800           0   0.00000       0.00000    
     17090 BUTH     149      BUTH     H3       HDA3A    0.900000E-01   1.00800           0   0.00000       0.00000    
     17091 BUTH     149      BUTH     H4       HDA2A    0.900000E-01   1.00800           0   0.00000       0.00000    
     17092 BUTH     149      BUTH     H5       HDA2A    0.900000E-01   1.00800           0   0.00000       0.00000    
     17093 BUTH     149      BUTH     H6       HDA2A    0.900000E-01   1.00800           0   0.00000       0.00000    
     17094 BUTH     149      BUTH     H7       HDA2A    0.900000E-01   1.00800           0   0.00000       0.00000    
     17095 BUTH     149      BUTH     H8       HDP1A    0.430000       1.00800           0   0.00000       0.00000    
     17096 BUTH     149      BUTH     H9       DUMH      0.00000       1.00800           0   0.00000       0.00000    
     17097 BUTH     149      BUTH     LPO11    LPDO1   -0.287000       0.00000          -1   0.00000       0.00000    
     17098 BUTH     149      BUTH     LPO12    LPDO1   -0.288000       0.00000          -1   0.00000       0.00000    
     17099 BUTH     149      BUTH     LPO21    LPD     -0.302000       0.00000          -1   0.00000       0.00000    
     17100 BUTH     149      BUTH     LPO22    LPD     -0.303000       0.00000          -1   0.00000       0.00000    
     17101 BUTH     150      BUTH     C1       CD33A     2.05990       11.6110           0  -1.81190       1.18670    
     17102 BUTH     150      BUTH     DC1      DRUD     -2.33590      0.400000           0   0.00000       0.00000    
     17103 BUTH     150      BUTH     C2       CD32A     2.02070       11.6110           0  -1.59660       1.16930    
     17104 BUTH     150      BUTH     DC2      DRUD     -2.19270      0.400000           0   0.00000       0.00000    
     17105 BUTH     150      BUTH     C3       CD32A     1.98270       11.6110           0  -1.59660       1.16930    
     17106 BUTH     150      BUTH     DC3      DRUD     -2.19270      0.400000           0   0.00000       0.00000    
     17107 BUTH     150      BUTH     C4       CD2O3A    2.72690       11.6110           0  -1.26130       1.05430    
     17108 BUTH     150      BUTH     DC4      DRUD     -1.94890      0.400000           0   0.00000       0.00000    
     17109 BUTH     150      BUTH     O1       OD2C1A    1.46540       15.5994           0 -0.713100      0.569800    
     17110 BUTH     150      BUTH     DO1      DRUD     -1.46540      0.400000           0   0.00000       0.00000    
     17111 BUTH     150      BUTH     O2       OD31A     1.58240       15.5990           0 -0.831500      0.749400    
     17112 BUTH     150      BUTH     DO2      DRUD     -1.58240      0.400000           0   0.00000       0.00000    
     17113 BUTH     150      BUTH     H1       HDA3A    0.900000E-01   1.00800           0   0.00000       0.00000    
     17114 BUTH     150      BUTH     H2       HDA3A    0.900000E-01   1.00800           0   0.00000       0.00000    
     17115 BUTH     150      BUTH     H3       HDA3A    0.900000E-01   1.00800           0   0.00000       0.00000    
     17116 BUTH     150      BUTH     H4       HDA2A    0.900000E-01   1.00800           0   0.00000       0.00000    
     17117 BUTH     150      BUTH     H5       HDA2A    0.900000E-01   1.00800           0   0.00000       0.00000    
     17118 BUTH     150      BUTH     H6       HDA2A    0.900000E-01   1.00800           0   0.00000       0.00000    
     17119 BUTH     150      BUTH     H7       HDA2A    0.900000E-01   1.00800           0   0.00000       0.00000    
     17120 BUTH     150      BUTH     H8       HDP1A    0.430000       1.00800           0   0.00000       0.00000    
     17121 BUTH     150      BUTH     H9       DUMH      0.00000       1.00800           0   0.00000       0.00000    
     17122 BUTH     150      BUTH     LPO11    LPDO1   -0.287000       0.00000          -1   0.00000       0.00000    
     17123 BUTH     150      BUTH     LPO12    LPDO1   -0.288000       0.00000          -1   0.00000       0.00000    
     17124 BUTH     150      BUTH     LPO21    LPD     -0.302000       0.00000          -1   0.00000       0.00000    
     17125 BUTH     150      BUTH     LPO22    LPD     -0.303000       0.00000          -1   0.00000       0.00000    
     17126 BUTH     151      BUTH     C1       CD33A     2.05990       11.6110           0  -1.81190       1.18670    
     17127 BUTH     151      BUTH     DC1      DRUD     -2.33590      0.400000           0   0.00000       0.00000    
     17128 BUTH     151      BUTH     C2       CD32A     2.02070       11.6110           0  -1.59660       1.16930    
     17129 BUTH     151      BUTH     DC2      DRUD     -2.19270      0.400000           0   0.00000       0.00000    
     17130 BUTH     151      BUTH     C3       CD32A     1.98270       11.6110           0  -1.59660       1.16930    
     17131 BUTH     151      BUTH     DC3      DRUD     -2.19270      0.400000           0   0.00000       0.00000    
     17132 BUTH     151      BUTH     C4       CD2O3A    2.72690       11.6110           0  -1.26130       1.05430    
     17133 BUTH     151      BUTH     DC4      DRUD     -1.94890      0.400000           0   0.00000       0.00000    
     17134 BUTH     151      BUTH     O1       OD2C1A    1.46540       15.5994           0 -0.713100      0.569800    
     17135 BUTH     151      BUTH     DO1      DRUD     -1.46540      0.400000           0   0.00000       0.00000    
     17136 BUTH     151      BUTH     O2       OD31A     1.58240       15.5990           0 -0.831500      0.749400    
     17137 BUTH     151      BUTH     DO2      DRUD     -1.58240      0.400000           0   0.00000       0.00000    
     17138 BUTH     151      BUTH     H1       HDA3A    0.900000E-01   1.00800           0   0.00000       0.00000    
     17139 BUTH     151      BUTH     H2       HDA3A    0.900000E-01   1.00800           0   0.00000       0.00000    
     17140 BUTH     151      BUTH     H3       HDA3A    0.900000E-01   1.00800           0   0.00000       0.00000    
     17141 BUTH     151      BUTH     H4       HDA2A    0.900000E-01   1.00800           0   0.00000       0.00000    
     17142 BUTH     151      BUTH     H5       HDA2A    0.900000E-01   1.00800           0   0.00000       0.00000    
     17143 BUTH     151      BUTH     H6       HDA2A    0.900000E-01   1.00800           0   0.00000       0.00000    
     17144 BUTH     151      BUTH     H7       HDA2A    0.900000E-01   1.00800           0   0.00000       0.00000    
     17145 BUTH     151      BUTH     H8       HDP1A    0.430000       1.00800           0   0.00000       0.00000    
     17146 BUTH     151      BUTH     H9       DUMH      0.00000       1.00800           0   0.00000       0.00000    
     17147 BUTH     151      BUTH     LPO11    LPDO1   -0.287000       0.00000          -1   0.00000       0.00000    
     17148 BUTH     151      BUTH     LPO12    LPDO1   -0.288000       0.00000          -1   0.00000       0.00000    
     17149 BUTH     151      BUTH     LPO21    LPD     -0.302000       0.00000          -1   0.00000       0.00000    
     17150 BUTH     151      BUTH     LPO22    LPD     -0.303000       0.00000          -1   0.00000       0.00000    
     17151 BUTH     152      BUTH     C1       CD33A     2.05990       11.6110           0  -1.81190       1.18670    
     17152 BUTH     152      BUTH     DC1      DRUD     -2.33590      0.400000           0   0.00000       0.00000    
     17153 BUTH     152      BUTH     C2       CD32A     2.02070       11.6110           0  -1.59660       1.16930    
     17154 BUTH     152      BUTH     DC2      DRUD     -2.19270      0.400000           0   0.00000       0.00000    
     17155 BUTH     152      BUTH     C3       CD32A     1.98270       11.6110           0  -1.59660       1.16930    
     17156 BUTH     152      BUTH     DC3      DRUD     -2.19270      0.400000           0   0.00000       0.00000    
     17157 BUTH     152      BUTH     C4       CD2O3A    2.72690       11.6110           0  -1.26130       1.05430    
     17158 BUTH     152      BUTH     DC4      DRUD     -1.94890      0.400000           0   0.00000       0.00000    
     17159 BUTH     152      BUTH     O1       OD2C1A    1.46540       15.5994           0 -0.713100      0.569800    
     17160 BUTH     152      BUTH     DO1      DRUD     -1.46540      0.400000           0   0.00000       0.00000    
     17161 BUTH     152      BUTH     O2       OD31A     1.58240       15.5990           0 -0.831500      0.749400    
     17162 BUTH     152      BUTH     DO2      DRUD     -1.58240      0.400000           0   0.00000       0.00000    
     17163 BUTH     152      BUTH     H1       HDA3A    0.900000E-01   1.00800           0   0.00000       0.00000    
     17164 BUTH     152      BUTH     H2       HDA3A    0.900000E-01   1.00800           0   0.00000       0.00000    
     17165 BUTH     152      BUTH     H3       HDA3A    0.900000E-01   1.00800           0   0.00000       0.00000    
     17166 BUTH     152      BUTH     H4       HDA2A    0.900000E-01   1.00800           0   0.00000       0.00000    
     17167 BUTH     152      BUTH     H5       HDA2A    0.900000E-01   1.00800           0   0.00000       0.00000    
     17168 BUTH     152      BUTH     H6       HDA2A    0.900000E-01   1.00800           0   0.00000       0.00000    
     17169 BUTH     152      BUTH     H7       HDA2A    0.900000E-01   1.00800           0   0.00000       0.00000    
     17170 BUTH     152      BUTH     H8       HDP1A    0.430000       1.00800           0   0.00000       0.00000    
     17171 BUTH     152      BUTH     H9       DUMH      0.00000       1.00800           0   0.00000       0.00000    
     17172 BUTH     152      BUTH     LPO11    LPDO1   -0.287000       0.00000          -1   0.00000       0.00000    
     17173 BUTH     152      BUTH     LPO12    LPDO1   -0.288000       0.00000          -1   0.00000       0.00000    
     17174 BUTH     152      BUTH     LPO21    LPD     -0.302000       0.00000          -1   0.00000       0.00000    
     17175 BUTH     152      BUTH     LPO22    LPD     -0.303000       0.00000          -1   0.00000       0.00000    
     17176 BUTH     153      BUTH     C1       CD33A     2.05990       11.6110           0  -1.81190       1.18670    
     17177 BUTH     153      BUTH     DC1      DRUD     -2.33590      0.400000           0   0.00000       0.00000    
     17178 BUTH     153      BUTH     C2       CD32A     2.02070       11.6110           0  -1.59660       1.16930    
     17179 BUTH     153      BUTH     DC2      DRUD     -2.19270      0.400000           0   0.00000       0.00000    
     17180 BUTH     153      BUTH     C3       CD32A     1.98270       11.6110           0  -1.59660       1.16930    
     17181 BUTH     153      BUTH     DC3      DRUD     -2.19270      0.400000           0   0.00000       0.00000    
     17182 BUTH     153      BUTH     C4       CD2O3A    2.72690       11.6110           0  -1.26130       1.05430    
     17183 BUTH     153      BUTH     DC4      DRUD     -1.94890      0.400000           0   0.00000       0.00000    
     17184 BUTH     153      BUTH     O1       OD2C1A    1.46540       15.5994           0 -0.713100      0.569800    
     17185 BUTH     153      BUTH     DO1      DRUD     -1.46540      0.400000           0   0.00000       0.00000    
     17186 BUTH     153      BUTH     O2       OD31A     1.58240       15.5990           0 -0.831500      0.749400    
     17187 BUTH     153      BUTH     DO2      DRUD     -1.58240      0.400000           0   0.00000       0.00000    
     17188 BUTH     153      BUTH     H1       HDA3A    0.900000E-01   1.00800           0   0.00000       0.00000    
     17189 BUTH     153      BUTH     H2       HDA3A    0.900000E-01   1.00800           0   0.00000       0.00000    
     17190 BUTH     153      BUTH     H3       HDA3A    0.900000E-01   1.00800           0   0.00000       0.00000    
     17191 BUTH     153      BUTH     H4       HDA2A    0.900000E-01   1.00800           0   0.00000       0.00000    
     17192 BUTH     153      BUTH     H5       HDA2A    0.900000E-01   1.00800           0   0.00000       0.00000    
     17193 BUTH     153      BUTH     H6       HDA2A    0.900000E-01   1.00800           0   0.00000       0.00000    
     17194 BUTH     153      BUTH     H7       HDA2A    0.900000E-01   1.00800           0   0.00000       0.00000    
     17195 BUTH     153      BUTH     H8       HDP1A    0.430000       1.00800           0   0.00000       0.00000    
     17196 BUTH     153      BUTH     H9       DUMH      0.00000       1.00800           0   0.00000       0.00000    
     17197 BUTH     153      BUTH     LPO11    LPDO1   -0.287000       0.00000          -1   0.00000       0.00000    
     17198 BUTH     153      BUTH     LPO12    LPDO1   -0.288000       0.00000          -1   0.00000       0.00000    
     17199 BUTH     153      BUTH     LPO21    LPD     -0.302000       0.00000          -1   0.00000       0.00000    
     17200 BUTH     153      BUTH     LPO22    LPD     -0.303000       0.00000          -1   0.00000       0.00000    
     17201 BUTH     154      BUTH     C1       CD33A     2.05990       11.6110           0  -1.81190       1.18670    
     17202 BUTH     154      BUTH     DC1      DRUD     -2.33590      0.400000           0   0.00000       0.00000    
     17203 BUTH     154      BUTH     C2       CD32A     2.02070       11.6110           0  -1.59660       1.16930    
     17204 BUTH     154      BUTH     DC2      DRUD     -2.19270      0.400000           0   0.00000       0.00000    
     17205 BUTH     154      BUTH     C3       CD32A     1.98270       11.6110           0  -1.59660       1.16930    
     17206 BUTH     154      BUTH     DC3      DRUD     -2.19270      0.400000           0   0.00000       0.00000    
     17207 BUTH     154      BUTH     C4       CD2O3A    2.72690       11.6110           0  -1.26130       1.05430    
     17208 BUTH     154      BUTH     DC4      DRUD     -1.94890      0.400000           0   0.00000       0.00000    
     17209 BUTH     154      BUTH     O1       OD2C1A    1.46540       15.5994           0 -0.713100      0.569800    
     17210 BUTH     154      BUTH     DO1      DRUD     -1.46540      0.400000           0   0.00000       0.00000    
     17211 BUTH     154      BUTH     O2       OD31A     1.58240       15.5990           0 -0.831500      0.749400    
     17212 BUTH     154      BUTH     DO2      DRUD     -1.58240      0.400000           0   0.00000       0.00000    
     17213 BUTH     154      BUTH     H1       HDA3A    0.900000E-01   1.00800           0   0.00000       0.00000    
     17214 BUTH     154      BUTH     H2       HDA3A    0.900000E-01   1.00800           0   0.00000       0.00000    
     17215 BUTH     154      BUTH     H3       HDA3A    0.900000E-01   1.00800           0   0.00000       0.00000    
     17216 BUTH     154      BUTH     H4       HDA2A    0.900000E-01   1.00800           0   0.00000       0.00000    
     17217 BUTH     154      BUTH     H5       HDA2A    0.900000E-01   1.00800           0   0.00000       0.00000    
     17218 BUTH     154      BUTH     H6       HDA2A    0.900000E-01   1.00800           0   0.00000       0.00000    
     17219 BUTH     154      BUTH     H7       HDA2A    0.900000E-01   1.00800           0   0.00000       0.00000    
     17220 BUTH     154      BUTH     H8       HDP1A    0.430000       1.00800           0   0.00000       0.00000    
     17221 BUTH     154      BUTH     H9       DUMH      0.00000       1.00800           0   0.00000       0.00000    
     17222 BUTH     154      BUTH     LPO11    LPDO1   -0.287000       0.00000          -1   0.00000       0.00000    
     17223 BUTH     154      BUTH     LPO12    LPDO1   -0.288000       0.00000          -1   0.00000       0.00000    
     17224 BUTH     154      BUTH     LPO21    LPD     -0.302000       0.00000          -1   0.00000       0.00000    
     17225 BUTH     154      BUTH     LPO22    LPD     -0.303000       0.00000          -1   0.00000       0.00000    
     17226 BUTH     155      BUTH     C1       CD33A     2.05990       11.6110           0  -1.81190       1.18670    
     17227 BUTH     155      BUTH     DC1      DRUD     -2.33590      0.400000           0   0.00000       0.00000    
     17228 BUTH     155      BUTH     C2       CD32A     2.02070       11.6110           0  -1.59660       1.16930    
     17229 BUTH     155      BUTH     DC2      DRUD     -2.19270      0.400000           0   0.00000       0.00000    
     17230 BUTH     155      BUTH     C3       CD32A     1.98270       11.6110           0  -1.59660       1.16930    
     17231 BUTH     155      BUTH     DC3      DRUD     -2.19270      0.400000           0   0.00000       0.00000    
     17232 BUTH     155      BUTH     C4       CD2O3A    2.72690       11.6110           0  -1.26130       1.05430    
     17233 BUTH     155      BUTH     DC4      DRUD     -1.94890      0.400000           0   0.00000       0.00000    
     17234 BUTH     155      BUTH     O1       OD2C1A    1.46540       15.5994           0 -0.713100      0.569800    
     17235 BUTH     155      BUTH     DO1      DRUD     -1.46540      0.400000           0   0.00000       0.00000    
     17236 BUTH     155      BUTH     O2       OD31A     1.58240       15.5990           0 -0.831500      0.749400    
     17237 BUTH     155      BUTH     DO2      DRUD     -1.58240      0.400000           0   0.00000       0.00000    
     17238 BUTH     155      BUTH     H1       HDA3A    0.900000E-01   1.00800           0   0.00000       0.00000    
     17239 BUTH     155      BUTH     H2       HDA3A    0.900000E-01   1.00800           0   0.00000       0.00000    
     17240 BUTH     155      BUTH     H3       HDA3A    0.900000E-01   1.00800           0   0.00000       0.00000    
     17241 BUTH     155      BUTH     H4       HDA2A    0.900000E-01   1.00800           0   0.00000       0.00000    
     17242 BUTH     155      BUTH     H5       HDA2A    0.900000E-01   1.00800           0   0.00000       0.00000    
     17243 BUTH     155      BUTH     H6       HDA2A    0.900000E-01   1.00800           0   0.00000       0.00000    
     17244 BUTH     155      BUTH     H7       HDA2A    0.900000E-01   1.00800           0   0.00000       0.00000    
     17245 BUTH     155      BUTH     H8       HDP1A    0.430000       1.00800           0   0.00000       0.00000    
     17246 BUTH     155      BUTH     H9       DUMH      0.00000       1.00800           0   0.00000       0.00000    
     17247 BUTH     155      BUTH     LPO11    LPDO1   -0.287000       0.00000          -1   0.00000       0.00000    
     17248 BUTH     155      BUTH     LPO12    LPDO1   -0.288000       0.00000          -1   0.00000       0.00000    
     17249 BUTH     155      BUTH     LPO21    LPD     -0.302000       0.00000          -1   0.00000       0.00000    
     17250 BUTH     155      BUTH     LPO22    LPD     -0.303000       0.00000          -1   0.00000       0.00000    
     17251 BUTH     156      BUTH     C1       CD33A     2.05990       11.6110           0  -1.81190       1.18670    
     17252 BUTH     156      BUTH     DC1      DRUD     -2.33590      0.400000           0   0.00000       0.00000    
     17253 BUTH     156      BUTH     C2       CD32A     2.02070       11.6110           0  -1.59660       1.16930    
     17254 BUTH     156      BUTH     DC2      DRUD     -2.19270      0.400000           0   0.00000       0.00000    
     17255 BUTH     156      BUTH     C3       CD32A     1.98270       11.6110           0  -1.59660       1.16930    
     17256 BUTH     156      BUTH     DC3      DRUD     -2.19270      0.400000           0   0.00000       0.00000    
     17257 BUTH     156      BUTH     C4       CD2O3A    2.72690       11.6110           0  -1.26130       1.05430    
     17258 BUTH     156      BUTH     DC4      DRUD     -1.94890      0.400000           0   0.00000       0.00000    
     17259 BUTH     156      BUTH     O1       OD2C1A    1.46540       15.5994           0 -0.713100      0.569800    
     17260 BUTH     156      BUTH     DO1      DRUD     -1.46540      0.400000           0   0.00000       0.00000    
     17261 BUTH     156      BUTH     O2       OD31A     1.58240       15.5990           0 -0.831500      0.749400    
     17262 BUTH     156      BUTH     DO2      DRUD     -1.58240      0.400000           0   0.00000       0.00000    
     17263 BUTH     156      BUTH     H1       HDA3A    0.900000E-01   1.00800           0   0.00000       0.00000    
     17264 BUTH     156      BUTH     H2       HDA3A    0.900000E-01   1.00800           0   0.00000       0.00000    
     17265 BUTH     156      BUTH     H3       HDA3A    0.900000E-01   1.00800           0   0.00000       0.00000    
     17266 BUTH     156      BUTH     H4       HDA2A    0.900000E-01   1.00800           0   0.00000       0.00000    
     17267 BUTH     156      BUTH     H5       HDA2A    0.900000E-01   1.00800           0   0.00000       0.00000    
     17268 BUTH     156      BUTH     H6       HDA2A    0.900000E-01   1.00800           0   0.00000       0.00000    
     17269 BUTH     156      BUTH     H7       HDA2A    0.900000E-01   1.00800           0   0.00000       0.00000    
     17270 BUTH     156      BUTH     H8       HDP1A    0.430000       1.00800           0   0.00000       0.00000    
     17271 BUTH     156      BUTH     H9       DUMH      0.00000       1.00800           0   0.00000       0.00000    
     17272 BUTH     156      BUTH     LPO11    LPDO1   -0.287000       0.00000          -1   0.00000       0.00000    
     17273 BUTH     156      BUTH     LPO12    LPDO1   -0.288000       0.00000          -1   0.00000       0.00000    
     17274 BUTH     156      BUTH     LPO21    LPD     -0.302000       0.00000          -1   0.00000       0.00000    
     17275 BUTH     156      BUTH     LPO22    LPD     -0.303000       0.00000          -1   0.00000       0.00000    
     17276 BUTH     157      BUTH     C1       CD33A     2.05990       11.6110           0  -1.81190       1.18670    
     17277 BUTH     157      BUTH     DC1      DRUD     -2.33590      0.400000           0   0.00000       0.00000    
     17278 BUTH     157      BUTH     C2       CD32A     2.02070       11.6110           0  -1.59660       1.16930    
     17279 BUTH     157      BUTH     DC2      DRUD     -2.19270      0.400000           0   0.00000       0.00000    
     17280 BUTH     157      BUTH     C3       CD32A     1.98270       11.6110           0  -1.59660       1.16930    
     17281 BUTH     157      BUTH     DC3      DRUD     -2.19270      0.400000           0   0.00000       0.00000    
     17282 BUTH     157      BUTH     C4       CD2O3A    2.72690       11.6110           0  -1.26130       1.05430    
     17283 BUTH     157      BUTH     DC4      DRUD     -1.94890      0.400000           0   0.00000       0.00000    
     17284 BUTH     157      BUTH     O1       OD2C1A    1.46540       15.5994           0 -0.713100      0.569800    
     17285 BUTH     157      BUTH     DO1      DRUD     -1.46540      0.400000           0   0.00000       0.00000    
     17286 BUTH     157      BUTH     O2       OD31A     1.58240       15.5990           0 -0.831500      0.749400    
     17287 BUTH     157      BUTH     DO2      DRUD     -1.58240      0.400000           0   0.00000       0.00000    
     17288 BUTH     157      BUTH     H1       HDA3A    0.900000E-01   1.00800           0   0.00000       0.00000    
     17289 BUTH     157      BUTH     H2       HDA3A    0.900000E-01   1.00800           0   0.00000       0.00000    
     17290 BUTH     157      BUTH     H3       HDA3A    0.900000E-01   1.00800           0   0.00000       0.00000    
     17291 BUTH     157      BUTH     H4       HDA2A    0.900000E-01   1.00800           0   0.00000       0.00000    
     17292 BUTH     157      BUTH     H5       HDA2A    0.900000E-01   1.00800           0   0.00000       0.00000    
     17293 BUTH     157      BUTH     H6       HDA2A    0.900000E-01   1.00800           0   0.00000       0.00000    
     17294 BUTH     157      BUTH     H7       HDA2A    0.900000E-01   1.00800           0   0.00000       0.00000    
     17295 BUTH     157      BUTH     H8       HDP1A    0.430000       1.00800           0   0.00000       0.00000    
     17296 BUTH     157      BUTH     H9       DUMH      0.00000       1.00800           0   0.00000       0.00000    
     17297 BUTH     157      BUTH     LPO11    LPDO1   -0.287000       0.00000          -1   0.00000       0.00000    
     17298 BUTH     157      BUTH     LPO12    LPDO1   -0.288000       0.00000          -1   0.00000       0.00000    
     17299 BUTH     157      BUTH     LPO21    LPD     -0.302000       0.00000          -1   0.00000       0.00000    
     17300 BUTH     157      BUTH     LPO22    LPD     -0.303000       0.00000          -1   0.00000       0.00000    
     17301 BUTH     158      BUTH     C1       CD33A     2.05990       11.6110           0  -1.81190       1.18670    
     17302 BUTH     158      BUTH     DC1      DRUD     -2.33590      0.400000           0   0.00000       0.00000    
     17303 BUTH     158      BUTH     C2       CD32A     2.02070       11.6110           0  -1.59660       1.16930    
     17304 BUTH     158      BUTH     DC2      DRUD     -2.19270      0.400000           0   0.00000       0.00000    
     17305 BUTH     158      BUTH     C3       CD32A     1.98270       11.6110           0  -1.59660       1.16930    
     17306 BUTH     158      BUTH     DC3      DRUD     -2.19270      0.400000           0   0.00000       0.00000    
     17307 BUTH     158      BUTH     C4       CD2O3A    2.72690       11.6110           0  -1.26130       1.05430    
     17308 BUTH     158      BUTH     DC4      DRUD     -1.94890      0.400000           0   0.00000       0.00000    
     17309 BUTH     158      BUTH     O1       OD2C1A    1.46540       15.5994           0 -0.713100      0.569800    
     17310 BUTH     158      BUTH     DO1      DRUD     -1.46540      0.400000           0   0.00000       0.00000    
     17311 BUTH     158      BUTH     O2       OD31A     1.58240       15.5990           0 -0.831500      0.749400    
     17312 BUTH     158      BUTH     DO2      DRUD     -1.58240      0.400000           0   0.00000       0.00000    
     17313 BUTH     158      BUTH     H1       HDA3A    0.900000E-01   1.00800           0   0.00000       0.00000    
     17314 BUTH     158      BUTH     H2       HDA3A    0.900000E-01   1.00800           0   0.00000       0.00000    
     17315 BUTH     158      BUTH     H3       HDA3A    0.900000E-01   1.00800           0   0.00000       0.00000    
     17316 BUTH     158      BUTH     H4       HDA2A    0.900000E-01   1.00800           0   0.00000       0.00000    
     17317 BUTH     158      BUTH     H5       HDA2A    0.900000E-01   1.00800           0   0.00000       0.00000    
     17318 BUTH     158      BUTH     H6       HDA2A    0.900000E-01   1.00800           0   0.00000       0.00000    
     17319 BUTH     158      BUTH     H7       HDA2A    0.900000E-01   1.00800           0   0.00000       0.00000    
     17320 BUTH     158      BUTH     H8       HDP1A    0.430000       1.00800           0   0.00000       0.00000    
     17321 BUTH     158      BUTH     H9       DUMH      0.00000       1.00800           0   0.00000       0.00000    
     17322 BUTH     158      BUTH     LPO11    LPDO1   -0.287000       0.00000          -1   0.00000       0.00000    
     17323 BUTH     158      BUTH     LPO12    LPDO1   -0.288000       0.00000          -1   0.00000       0.00000    
     17324 BUTH     158      BUTH     LPO21    LPD     -0.302000       0.00000          -1   0.00000       0.00000    
     17325 BUTH     158      BUTH     LPO22    LPD     -0.303000       0.00000          -1   0.00000       0.00000    
     17326 BUTH     159      BUTH     C1       CD33A     2.05990       11.6110           0  -1.81190       1.18670    
     17327 BUTH     159      BUTH     DC1      DRUD     -2.33590      0.400000           0   0.00000       0.00000    
     17328 BUTH     159      BUTH     C2       CD32A     2.02070       11.6110           0  -1.59660       1.16930    
     17329 BUTH     159      BUTH     DC2      DRUD     -2.19270      0.400000           0   0.00000       0.00000    
     17330 BUTH     159      BUTH     C3       CD32A     1.98270       11.6110           0  -1.59660       1.16930    
     17331 BUTH     159      BUTH     DC3      DRUD     -2.19270      0.400000           0   0.00000       0.00000    
     17332 BUTH     159      BUTH     C4       CD2O3A    2.72690       11.6110           0  -1.26130       1.05430    
     17333 BUTH     159      BUTH     DC4      DRUD     -1.94890      0.400000           0   0.00000       0.00000    
     17334 BUTH     159      BUTH     O1       OD2C1A    1.46540       15.5994           0 -0.713100      0.569800    
     17335 BUTH     159      BUTH     DO1      DRUD     -1.46540      0.400000           0   0.00000       0.00000    
     17336 BUTH     159      BUTH     O2       OD31A     1.58240       15.5990           0 -0.831500      0.749400    
     17337 BUTH     159      BUTH     DO2      DRUD     -1.58240      0.400000           0   0.00000       0.00000    
     17338 BUTH     159      BUTH     H1       HDA3A    0.900000E-01   1.00800           0   0.00000       0.00000    
     17339 BUTH     159      BUTH     H2       HDA3A    0.900000E-01   1.00800           0   0.00000       0.00000    
     17340 BUTH     159      BUTH     H3       HDA3A    0.900000E-01   1.00800           0   0.00000       0.00000    
     17341 BUTH     159      BUTH     H4       HDA2A    0.900000E-01   1.00800           0   0.00000       0.00000    
     17342 BUTH     159      BUTH     H5       HDA2A    0.900000E-01   1.00800           0   0.00000       0.00000    
     17343 BUTH     159      BUTH     H6       HDA2A    0.900000E-01   1.00800           0   0.00000       0.00000    
     17344 BUTH     159      BUTH     H7       HDA2A    0.900000E-01   1.00800           0   0.00000       0.00000    
     17345 BUTH     159      BUTH     H8       HDP1A    0.430000       1.00800           0   0.00000       0.00000    
     17346 BUTH     159      BUTH     H9       DUMH      0.00000       1.00800           0   0.00000       0.00000    
     17347 BUTH     159      BUTH     LPO11    LPDO1   -0.287000       0.00000          -1   0.00000       0.00000    
     17348 BUTH     159      BUTH     LPO12    LPDO1   -0.288000       0.00000          -1   0.00000       0.00000    
     17349 BUTH     159      BUTH     LPO21    LPD     -0.302000       0.00000          -1   0.00000       0.00000    
     17350 BUTH     159      BUTH     LPO22    LPD     -0.303000       0.00000          -1   0.00000       0.00000    
     17351 BUTH     160      BUTH     C1       CD33A     2.05990       11.6110           0  -1.81190       1.18670    
     17352 BUTH     160      BUTH     DC1      DRUD     -2.33590      0.400000           0   0.00000       0.00000    
     17353 BUTH     160      BUTH     C2       CD32A     2.02070       11.6110           0  -1.59660       1.16930    
     17354 BUTH     160      BUTH     DC2      DRUD     -2.19270      0.400000           0   0.00000       0.00000    
     17355 BUTH     160      BUTH     C3       CD32A     1.98270       11.6110           0  -1.59660       1.16930    
     17356 BUTH     160      BUTH     DC3      DRUD     -2.19270      0.400000           0   0.00000       0.00000    
     17357 BUTH     160      BUTH     C4       CD2O3A    2.72690       11.6110           0  -1.26130       1.05430    
     17358 BUTH     160      BUTH     DC4      DRUD     -1.94890      0.400000           0   0.00000       0.00000    
     17359 BUTH     160      BUTH     O1       OD2C1A    1.46540       15.5994           0 -0.713100      0.569800    
     17360 BUTH     160      BUTH     DO1      DRUD     -1.46540      0.400000           0   0.00000       0.00000    
     17361 BUTH     160      BUTH     O2       OD31A     1.58240       15.5990           0 -0.831500      0.749400    
     17362 BUTH     160      BUTH     DO2      DRUD     -1.58240      0.400000           0   0.00000       0.00000    
     17363 BUTH     160      BUTH     H1       HDA3A    0.900000E-01   1.00800           0   0.00000       0.00000    
     17364 BUTH     160      BUTH     H2       HDA3A    0.900000E-01   1.00800           0   0.00000       0.00000    
     17365 BUTH     160      BUTH     H3       HDA3A    0.900000E-01   1.00800           0   0.00000       0.00000    
     17366 BUTH     160      BUTH     H4       HDA2A    0.900000E-01   1.00800           0   0.00000       0.00000    
     17367 BUTH     160      BUTH     H5       HDA2A    0.900000E-01   1.00800           0   0.00000       0.00000    
     17368 BUTH     160      BUTH     H6       HDA2A    0.900000E-01   1.00800           0   0.00000       0.00000    
     17369 BUTH     160      BUTH     H7       HDA2A    0.900000E-01   1.00800           0   0.00000       0.00000    
     17370 BUTH     160      BUTH     H8       HDP1A    0.430000       1.00800           0   0.00000       0.00000    
     17371 BUTH     160      BUTH     H9       DUMH      0.00000       1.00800           0   0.00000       0.00000    
     17372 BUTH     160      BUTH     LPO11    LPDO1   -0.287000       0.00000          -1   0.00000       0.00000    
     17373 BUTH     160      BUTH     LPO12    LPDO1   -0.288000       0.00000          -1   0.00000       0.00000    
     17374 BUTH     160      BUTH     LPO21    LPD     -0.302000       0.00000          -1   0.00000       0.00000    
     17375 BUTH     160      BUTH     LPO22    LPD     -0.303000       0.00000          -1   0.00000       0.00000    
     17376 BUTH     161      BUTH     C1       CD33A     2.05990       11.6110           0  -1.81190       1.18670    
     17377 BUTH     161      BUTH     DC1      DRUD     -2.33590      0.400000           0   0.00000       0.00000    
     17378 BUTH     161      BUTH     C2       CD32A     2.02070       11.6110           0  -1.59660       1.16930    
     17379 BUTH     161      BUTH     DC2      DRUD     -2.19270      0.400000           0   0.00000       0.00000    
     17380 BUTH     161      BUTH     C3       CD32A     1.98270       11.6110           0  -1.59660       1.16930    
     17381 BUTH     161      BUTH     DC3      DRUD     -2.19270      0.400000           0   0.00000       0.00000    
     17382 BUTH     161      BUTH     C4       CD2O3A    2.72690       11.6110           0  -1.26130       1.05430    
     17383 BUTH     161      BUTH     DC4      DRUD     -1.94890      0.400000           0   0.00000       0.00000    
     17384 BUTH     161      BUTH     O1       OD2C1A    1.46540       15.5994           0 -0.713100      0.569800    
     17385 BUTH     161      BUTH     DO1      DRUD     -1.46540      0.400000           0   0.00000       0.00000    
     17386 BUTH     161      BUTH     O2       OD31A     1.58240       15.5990           0 -0.831500      0.749400    
     17387 BUTH     161      BUTH     DO2      DRUD     -1.58240      0.400000           0   0.00000       0.00000    
     17388 BUTH     161      BUTH     H1       HDA3A    0.900000E-01   1.00800           0   0.00000       0.00000    
     17389 BUTH     161      BUTH     H2       HDA3A    0.900000E-01   1.00800           0   0.00000       0.00000    
     17390 BUTH     161      BUTH     H3       HDA3A    0.900000E-01   1.00800           0   0.00000       0.00000    
     17391 BUTH     161      BUTH     H4       HDA2A    0.900000E-01   1.00800           0   0.00000       0.00000    
     17392 BUTH     161      BUTH     H5       HDA2A    0.900000E-01   1.00800           0   0.00000       0.00000    
     17393 BUTH     161      BUTH     H6       HDA2A    0.900000E-01   1.00800           0   0.00000       0.00000    
     17394 BUTH     161      BUTH     H7       HDA2A    0.900000E-01   1.00800           0   0.00000       0.00000    
     17395 BUTH     161      BUTH     H8       HDP1A    0.430000       1.00800           0   0.00000       0.00000    
     17396 BUTH     161      BUTH     H9       DUMH      0.00000       1.00800           0   0.00000       0.00000    
     17397 BUTH     161      BUTH     LPO11    LPDO1   -0.287000       0.00000          -1   0.00000       0.00000    
     17398 BUTH     161      BUTH     LPO12    LPDO1   -0.288000       0.00000          -1   0.00000       0.00000    
     17399 BUTH     161      BUTH     LPO21    LPD     -0.302000       0.00000          -1   0.00000       0.00000    
     17400 BUTH     161      BUTH     LPO22    LPD     -0.303000       0.00000          -1   0.00000       0.00000    
     17401 BUTH     162      BUTH     C1       CD33A     2.05990       11.6110           0  -1.81190       1.18670    
     17402 BUTH     162      BUTH     DC1      DRUD     -2.33590      0.400000           0   0.00000       0.00000    
     17403 BUTH     162      BUTH     C2       CD32A     2.02070       11.6110           0  -1.59660       1.16930    
     17404 BUTH     162      BUTH     DC2      DRUD     -2.19270      0.400000           0   0.00000       0.00000    
     17405 BUTH     162      BUTH     C3       CD32A     1.98270       11.6110           0  -1.59660       1.16930    
     17406 BUTH     162      BUTH     DC3      DRUD     -2.19270      0.400000           0   0.00000       0.00000    
     17407 BUTH     162      BUTH     C4       CD2O3A    2.72690       11.6110           0  -1.26130       1.05430    
     17408 BUTH     162      BUTH     DC4      DRUD     -1.94890      0.400000           0   0.00000       0.00000    
     17409 BUTH     162      BUTH     O1       OD2C1A    1.46540       15.5994           0 -0.713100      0.569800    
     17410 BUTH     162      BUTH     DO1      DRUD     -1.46540      0.400000           0   0.00000       0.00000    
     17411 BUTH     162      BUTH     O2       OD31A     1.58240       15.5990           0 -0.831500      0.749400    
     17412 BUTH     162      BUTH     DO2      DRUD     -1.58240      0.400000           0   0.00000       0.00000    
     17413 BUTH     162      BUTH     H1       HDA3A    0.900000E-01   1.00800           0   0.00000       0.00000    
     17414 BUTH     162      BUTH     H2       HDA3A    0.900000E-01   1.00800           0   0.00000       0.00000    
     17415 BUTH     162      BUTH     H3       HDA3A    0.900000E-01   1.00800           0   0.00000       0.00000    
     17416 BUTH     162      BUTH     H4       HDA2A    0.900000E-01   1.00800           0   0.00000       0.00000    
     17417 BUTH     162      BUTH     H5       HDA2A    0.900000E-01   1.00800           0   0.00000       0.00000    
     17418 BUTH     162      BUTH     H6       HDA2A    0.900000E-01   1.00800           0   0.00000       0.00000    
     17419 BUTH     162      BUTH     H7       HDA2A    0.900000E-01   1.00800           0   0.00000       0.00000    
     17420 BUTH     162      BUTH     H8       HDP1A    0.430000       1.00800           0   0.00000       0.00000    
     17421 BUTH     162      BUTH     H9       DUMH      0.00000       1.00800           0   0.00000       0.00000    
     17422 BUTH     162      BUTH     LPO11    LPDO1   -0.287000       0.00000          -1   0.00000       0.00000    
     17423 BUTH     162      BUTH     LPO12    LPDO1   -0.288000       0.00000          -1   0.00000       0.00000    
     17424 BUTH     162      BUTH     LPO21    LPD     -0.302000       0.00000          -1   0.00000       0.00000    
     17425 BUTH     162      BUTH     LPO22    LPD     -0.303000       0.00000          -1   0.00000       0.00000    
     17426 BUTH     163      BUTH     C1       CD33A     2.05990       11.6110           0  -1.81190       1.18670    
     17427 BUTH     163      BUTH     DC1      DRUD     -2.33590      0.400000           0   0.00000       0.00000    
     17428 BUTH     163      BUTH     C2       CD32A     2.02070       11.6110           0  -1.59660       1.16930    
     17429 BUTH     163      BUTH     DC2      DRUD     -2.19270      0.400000           0   0.00000       0.00000    
     17430 BUTH     163      BUTH     C3       CD32A     1.98270       11.6110           0  -1.59660       1.16930    
     17431 BUTH     163      BUTH     DC3      DRUD     -2.19270      0.400000           0   0.00000       0.00000    
     17432 BUTH     163      BUTH     C4       CD2O3A    2.72690       11.6110           0  -1.26130       1.05430    
     17433 BUTH     163      BUTH     DC4      DRUD     -1.94890      0.400000           0   0.00000       0.00000    
     17434 BUTH     163      BUTH     O1       OD2C1A    1.46540       15.5994           0 -0.713100      0.569800    
     17435 BUTH     163      BUTH     DO1      DRUD     -1.46540      0.400000           0   0.00000       0.00000    
     17436 BUTH     163      BUTH     O2       OD31A     1.58240       15.5990           0 -0.831500      0.749400    
     17437 BUTH     163      BUTH     DO2      DRUD     -1.58240      0.400000           0   0.00000       0.00000    
     17438 BUTH     163      BUTH     H1       HDA3A    0.900000E-01   1.00800           0   0.00000       0.00000    
     17439 BUTH     163      BUTH     H2       HDA3A    0.900000E-01   1.00800           0   0.00000       0.00000    
     17440 BUTH     163      BUTH     H3       HDA3A    0.900000E-01   1.00800           0   0.00000       0.00000    
     17441 BUTH     163      BUTH     H4       HDA2A    0.900000E-01   1.00800           0   0.00000       0.00000    
     17442 BUTH     163      BUTH     H5       HDA2A    0.900000E-01   1.00800           0   0.00000       0.00000    
     17443 BUTH     163      BUTH     H6       HDA2A    0.900000E-01   1.00800           0   0.00000       0.00000    
     17444 BUTH     163      BUTH     H7       HDA2A    0.900000E-01   1.00800           0   0.00000       0.00000    
     17445 BUTH     163      BUTH     H8       HDP1A    0.430000       1.00800           0   0.00000       0.00000    
     17446 BUTH     163      BUTH     H9       DUMH      0.00000       1.00800           0   0.00000       0.00000    
     17447 BUTH     163      BUTH     LPO11    LPDO1   -0.287000       0.00000          -1   0.00000       0.00000    
     17448 BUTH     163      BUTH     LPO12    LPDO1   -0.288000       0.00000          -1   0.00000       0.00000    
     17449 BUTH     163      BUTH     LPO21    LPD     -0.302000       0.00000          -1   0.00000       0.00000    
     17450 BUTH     163      BUTH     LPO22    LPD     -0.303000       0.00000          -1   0.00000       0.00000    
     17451 BUTH     164      BUTH     C1       CD33A     2.05990       11.6110           0  -1.81190       1.18670    
     17452 BUTH     164      BUTH     DC1      DRUD     -2.33590      0.400000           0   0.00000       0.00000    
     17453 BUTH     164      BUTH     C2       CD32A     2.02070       11.6110           0  -1.59660       1.16930    
     17454 BUTH     164      BUTH     DC2      DRUD     -2.19270      0.400000           0   0.00000       0.00000    
     17455 BUTH     164      BUTH     C3       CD32A     1.98270       11.6110           0  -1.59660       1.16930    
     17456 BUTH     164      BUTH     DC3      DRUD     -2.19270      0.400000           0   0.00000       0.00000    
     17457 BUTH     164      BUTH     C4       CD2O3A    2.72690       11.6110           0  -1.26130       1.05430    
     17458 BUTH     164      BUTH     DC4      DRUD     -1.94890      0.400000           0   0.00000       0.00000    
     17459 BUTH     164      BUTH     O1       OD2C1A    1.46540       15.5994           0 -0.713100      0.569800    
     17460 BUTH     164      BUTH     DO1      DRUD     -1.46540      0.400000           0   0.00000       0.00000    
     17461 BUTH     164      BUTH     O2       OD31A     1.58240       15.5990           0 -0.831500      0.749400    
     17462 BUTH     164      BUTH     DO2      DRUD     -1.58240      0.400000           0   0.00000       0.00000    
     17463 BUTH     164      BUTH     H1       HDA3A    0.900000E-01   1.00800           0   0.00000       0.00000    
     17464 BUTH     164      BUTH     H2       HDA3A    0.900000E-01   1.00800           0   0.00000       0.00000    
     17465 BUTH     164      BUTH     H3       HDA3A    0.900000E-01   1.00800           0   0.00000       0.00000    
     17466 BUTH     164      BUTH     H4       HDA2A    0.900000E-01   1.00800           0   0.00000       0.00000    
     17467 BUTH     164      BUTH     H5       HDA2A    0.900000E-01   1.00800           0   0.00000       0.00000    
     17468 BUTH     164      BUTH     H6       HDA2A    0.900000E-01   1.00800           0   0.00000       0.00000    
     17469 BUTH     164      BUTH     H7       HDA2A    0.900000E-01   1.00800           0   0.00000       0.00000    
     17470 BUTH     164      BUTH     H8       HDP1A    0.430000       1.00800           0   0.00000       0.00000    
     17471 BUTH     164      BUTH     H9       DUMH      0.00000       1.00800           0   0.00000       0.00000    
     17472 BUTH     164      BUTH     LPO11    LPDO1   -0.287000       0.00000          -1   0.00000       0.00000    
     17473 BUTH     164      BUTH     LPO12    LPDO1   -0.288000       0.00000          -1   0.00000       0.00000    
     17474 BUTH     164      BUTH     LPO21    LPD     -0.302000       0.00000          -1   0.00000       0.00000    
     17475 BUTH     164      BUTH     LPO22    LPD     -0.303000       0.00000          -1   0.00000       0.00000    
     17476 BUTH     165      BUTH     C1       CD33A     2.05990       11.6110           0  -1.81190       1.18670    
     17477 BUTH     165      BUTH     DC1      DRUD     -2.33590      0.400000           0   0.00000       0.00000    
     17478 BUTH     165      BUTH     C2       CD32A     2.02070       11.6110           0  -1.59660       1.16930    
     17479 BUTH     165      BUTH     DC2      DRUD     -2.19270      0.400000           0   0.00000       0.00000    
     17480 BUTH     165      BUTH     C3       CD32A     1.98270       11.6110           0  -1.59660       1.16930    
     17481 BUTH     165      BUTH     DC3      DRUD     -2.19270      0.400000           0   0.00000       0.00000    
     17482 BUTH     165      BUTH     C4       CD2O3A    2.72690       11.6110           0  -1.26130       1.05430    
     17483 BUTH     165      BUTH     DC4      DRUD     -1.94890      0.400000           0   0.00000       0.00000    
     17484 BUTH     165      BUTH     O1       OD2C1A    1.46540       15.5994           0 -0.713100      0.569800    
     17485 BUTH     165      BUTH     DO1      DRUD     -1.46540      0.400000           0   0.00000       0.00000    
     17486 BUTH     165      BUTH     O2       OD31A     1.58240       15.5990           0 -0.831500      0.749400    
     17487 BUTH     165      BUTH     DO2      DRUD     -1.58240      0.400000           0   0.00000       0.00000    
     17488 BUTH     165      BUTH     H1       HDA3A    0.900000E-01   1.00800           0   0.00000       0.00000    
     17489 BUTH     165      BUTH     H2       HDA3A    0.900000E-01   1.00800           0   0.00000       0.00000    
     17490 BUTH     165      BUTH     H3       HDA3A    0.900000E-01   1.00800           0   0.00000       0.00000    
     17491 BUTH     165      BUTH     H4       HDA2A    0.900000E-01   1.00800           0   0.00000       0.00000    
     17492 BUTH     165      BUTH     H5       HDA2A    0.900000E-01   1.00800           0   0.00000       0.00000    
     17493 BUTH     165      BUTH     H6       HDA2A    0.900000E-01   1.00800           0   0.00000       0.00000    
     17494 BUTH     165      BUTH     H7       HDA2A    0.900000E-01   1.00800           0   0.00000       0.00000    
     17495 BUTH     165      BUTH     H8       HDP1A    0.430000       1.00800           0   0.00000       0.00000    
     17496 BUTH     165      BUTH     H9       DUMH      0.00000       1.00800           0   0.00000       0.00000    
     17497 BUTH     165      BUTH     LPO11    LPDO1   -0.287000       0.00000          -1   0.00000       0.00000    
     17498 BUTH     165      BUTH     LPO12    LPDO1   -0.288000       0.00000          -1   0.00000       0.00000    
     17499 BUTH     165      BUTH     LPO21    LPD     -0.302000       0.00000          -1   0.00000       0.00000    
     17500 BUTH     165      BUTH     LPO22    LPD     -0.303000       0.00000          -1   0.00000       0.00000    
     17501 BUTH     166      BUTH     C1       CD33A     2.05990       11.6110           0  -1.81190       1.18670    
     17502 BUTH     166      BUTH     DC1      DRUD     -2.33590      0.400000           0   0.00000       0.00000    
     17503 BUTH     166      BUTH     C2       CD32A     2.02070       11.6110           0  -1.59660       1.16930    
     17504 BUTH     166      BUTH     DC2      DRUD     -2.19270      0.400000           0   0.00000       0.00000    
     17505 BUTH     166      BUTH     C3       CD32A     1.98270       11.6110           0  -1.59660       1.16930    
     17506 BUTH     166      BUTH     DC3      DRUD     -2.19270      0.400000           0   0.00000       0.00000    
     17507 BUTH     166      BUTH     C4       CD2O3A    2.72690       11.6110           0  -1.26130       1.05430    
     17508 BUTH     166      BUTH     DC4      DRUD     -1.94890      0.400000           0   0.00000       0.00000    
     17509 BUTH     166      BUTH     O1       OD2C1A    1.46540       15.5994           0 -0.713100      0.569800    
     17510 BUTH     166      BUTH     DO1      DRUD     -1.46540      0.400000           0   0.00000       0.00000    
     17511 BUTH     166      BUTH     O2       OD31A     1.58240       15.5990           0 -0.831500      0.749400    
     17512 BUTH     166      BUTH     DO2      DRUD     -1.58240      0.400000           0   0.00000       0.00000    
     17513 BUTH     166      BUTH     H1       HDA3A    0.900000E-01   1.00800           0   0.00000       0.00000    
     17514 BUTH     166      BUTH     H2       HDA3A    0.900000E-01   1.00800           0   0.00000       0.00000    
     17515 BUTH     166      BUTH     H3       HDA3A    0.900000E-01   1.00800           0   0.00000       0.00000    
     17516 BUTH     166      BUTH     H4       HDA2A    0.900000E-01   1.00800           0   0.00000       0.00000    
     17517 BUTH     166      BUTH     H5       HDA2A    0.900000E-01   1.00800           0   0.00000       0.00000    
     17518 BUTH     166      BUTH     H6       HDA2A    0.900000E-01   1.00800           0   0.00000       0.00000    
     17519 BUTH     166      BUTH     H7       HDA2A    0.900000E-01   1.00800           0   0.00000       0.00000    
     17520 BUTH     166      BUTH     H8       HDP1A    0.430000       1.00800           0   0.00000       0.00000    
     17521 BUTH     166      BUTH     H9       DUMH      0.00000       1.00800           0   0.00000       0.00000    
     17522 BUTH     166      BUTH     LPO11    LPDO1   -0.287000       0.00000          -1   0.00000       0.00000    
     17523 BUTH     166      BUTH     LPO12    LPDO1   -0.288000       0.00000          -1   0.00000       0.00000    
     17524 BUTH     166      BUTH     LPO21    LPD     -0.302000       0.00000          -1   0.00000       0.00000    
     17525 BUTH     166      BUTH     LPO22    LPD     -0.303000       0.00000          -1   0.00000       0.00000    
     17526 BUTH     167      BUTH     C1       CD33A     2.05990       11.6110           0  -1.81190       1.18670    
     17527 BUTH     167      BUTH     DC1      DRUD     -2.33590      0.400000           0   0.00000       0.00000    
     17528 BUTH     167      BUTH     C2       CD32A     2.02070       11.6110           0  -1.59660       1.16930    
     17529 BUTH     167      BUTH     DC2      DRUD     -2.19270      0.400000           0   0.00000       0.00000    
     17530 BUTH     167      BUTH     C3       CD32A     1.98270       11.6110           0  -1.59660       1.16930    
     17531 BUTH     167      BUTH     DC3      DRUD     -2.19270      0.400000           0   0.00000       0.00000    
     17532 BUTH     167      BUTH     C4       CD2O3A    2.72690       11.6110           0  -1.26130       1.05430    
     17533 BUTH     167      BUTH     DC4      DRUD     -1.94890      0.400000           0   0.00000       0.00000    
     17534 BUTH     167      BUTH     O1       OD2C1A    1.46540       15.5994           0 -0.713100      0.569800    
     17535 BUTH     167      BUTH     DO1      DRUD     -1.46540      0.400000           0   0.00000       0.00000    
     17536 BUTH     167      BUTH     O2       OD31A     1.58240       15.5990           0 -0.831500      0.749400    
     17537 BUTH     167      BUTH     DO2      DRUD     -1.58240      0.400000           0   0.00000       0.00000    
     17538 BUTH     167      BUTH     H1       HDA3A    0.900000E-01   1.00800           0   0.00000       0.00000    
     17539 BUTH     167      BUTH     H2       HDA3A    0.900000E-01   1.00800           0   0.00000       0.00000    
     17540 BUTH     167      BUTH     H3       HDA3A    0.900000E-01   1.00800           0   0.00000       0.00000    
     17541 BUTH     167      BUTH     H4       HDA2A    0.900000E-01   1.00800           0   0.00000       0.00000    
     17542 BUTH     167      BUTH     H5       HDA2A    0.900000E-01   1.00800           0   0.00000       0.00000    
     17543 BUTH     167      BUTH     H6       HDA2A    0.900000E-01   1.00800           0   0.00000       0.00000    
     17544 BUTH     167      BUTH     H7       HDA2A    0.900000E-01   1.00800           0   0.00000       0.00000    
     17545 BUTH     167      BUTH     H8       HDP1A    0.430000       1.00800           0   0.00000       0.00000    
     17546 BUTH     167      BUTH     H9       DUMH      0.00000       1.00800           0   0.00000       0.00000    
     17547 BUTH     167      BUTH     LPO11    LPDO1   -0.287000       0.00000          -1   0.00000       0.00000    
     17548 BUTH     167      BUTH     LPO12    LPDO1   -0.288000       0.00000          -1   0.00000       0.00000    
     17549 BUTH     167      BUTH     LPO21    LPD     -0.302000       0.00000          -1   0.00000       0.00000    
     17550 BUTH     167      BUTH     LPO22    LPD     -0.303000       0.00000          -1   0.00000       0.00000    
     17551 BUTH     168      BUTH     C1       CD33A     2.05990       11.6110           0  -1.81190       1.18670    
     17552 BUTH     168      BUTH     DC1      DRUD     -2.33590      0.400000           0   0.00000       0.00000    
     17553 BUTH     168      BUTH     C2       CD32A     2.02070       11.6110           0  -1.59660       1.16930    
     17554 BUTH     168      BUTH     DC2      DRUD     -2.19270      0.400000           0   0.00000       0.00000    
     17555 BUTH     168      BUTH     C3       CD32A     1.98270       11.6110           0  -1.59660       1.16930    
     17556 BUTH     168      BUTH     DC3      DRUD     -2.19270      0.400000           0   0.00000       0.00000    
     17557 BUTH     168      BUTH     C4       CD2O3A    2.72690       11.6110           0  -1.26130       1.05430    
     17558 BUTH     168      BUTH     DC4      DRUD     -1.94890      0.400000           0   0.00000       0.00000    
     17559 BUTH     168      BUTH     O1       OD2C1A    1.46540       15.5994           0 -0.713100      0.569800    
     17560 BUTH     168      BUTH     DO1      DRUD     -1.46540      0.400000           0   0.00000       0.00000    
     17561 BUTH     168      BUTH     O2       OD31A     1.58240       15.5990           0 -0.831500      0.749400    
     17562 BUTH     168      BUTH     DO2      DRUD     -1.58240      0.400000           0   0.00000       0.00000    
     17563 BUTH     168      BUTH     H1       HDA3A    0.900000E-01   1.00800           0   0.00000       0.00000    
     17564 BUTH     168      BUTH     H2       HDA3A    0.900000E-01   1.00800           0   0.00000       0.00000    
     17565 BUTH     168      BUTH     H3       HDA3A    0.900000E-01   1.00800           0   0.00000       0.00000    
     17566 BUTH     168      BUTH     H4       HDA2A    0.900000E-01   1.00800           0   0.00000       0.00000    
     17567 BUTH     168      BUTH     H5       HDA2A    0.900000E-01   1.00800           0   0.00000       0.00000    
     17568 BUTH     168      BUTH     H6       HDA2A    0.900000E-01   1.00800           0   0.00000       0.00000    
     17569 BUTH     168      BUTH     H7       HDA2A    0.900000E-01   1.00800           0   0.00000       0.00000    
     17570 BUTH     168      BUTH     H8       HDP1A    0.430000       1.00800           0   0.00000       0.00000    
     17571 BUTH     168      BUTH     H9       DUMH      0.00000       1.00800           0   0.00000       0.00000    
     17572 BUTH     168      BUTH     LPO11    LPDO1   -0.287000       0.00000          -1   0.00000       0.00000    
     17573 BUTH     168      BUTH     LPO12    LPDO1   -0.288000       0.00000          -1   0.00000       0.00000    
     17574 BUTH     168      BUTH     LPO21    LPD     -0.302000       0.00000          -1   0.00000       0.00000    
     17575 BUTH     168      BUTH     LPO22    LPD     -0.303000       0.00000          -1   0.00000       0.00000    
     17576 BUTH     169      BUTH     C1       CD33A     2.05990       11.6110           0  -1.81190       1.18670    
     17577 BUTH     169      BUTH     DC1      DRUD     -2.33590      0.400000           0   0.00000       0.00000    
     17578 BUTH     169      BUTH     C2       CD32A     2.02070       11.6110           0  -1.59660       1.16930    
     17579 BUTH     169      BUTH     DC2      DRUD     -2.19270      0.400000           0   0.00000       0.00000    
     17580 BUTH     169      BUTH     C3       CD32A     1.98270       11.6110           0  -1.59660       1.16930    
     17581 BUTH     169      BUTH     DC3      DRUD     -2.19270      0.400000           0   0.00000       0.00000    
     17582 BUTH     169      BUTH     C4       CD2O3A    2.72690       11.6110           0  -1.26130       1.05430    
     17583 BUTH     169      BUTH     DC4      DRUD     -1.94890      0.400000           0   0.00000       0.00000    
     17584 BUTH     169      BUTH     O1       OD2C1A    1.46540       15.5994           0 -0.713100      0.569800    
     17585 BUTH     169      BUTH     DO1      DRUD     -1.46540      0.400000           0   0.00000       0.00000    
     17586 BUTH     169      BUTH     O2       OD31A     1.58240       15.5990           0 -0.831500      0.749400    
     17587 BUTH     169      BUTH     DO2      DRUD     -1.58240      0.400000           0   0.00000       0.00000    
     17588 BUTH     169      BUTH     H1       HDA3A    0.900000E-01   1.00800           0   0.00000       0.00000    
     17589 BUTH     169      BUTH     H2       HDA3A    0.900000E-01   1.00800           0   0.00000       0.00000    
     17590 BUTH     169      BUTH     H3       HDA3A    0.900000E-01   1.00800           0   0.00000       0.00000    
     17591 BUTH     169      BUTH     H4       HDA2A    0.900000E-01   1.00800           0   0.00000       0.00000    
     17592 BUTH     169      BUTH     H5       HDA2A    0.900000E-01   1.00800           0   0.00000       0.00000    
     17593 BUTH     169      BUTH     H6       HDA2A    0.900000E-01   1.00800           0   0.00000       0.00000    
     17594 BUTH     169      BUTH     H7       HDA2A    0.900000E-01   1.00800           0   0.00000       0.00000    
     17595 BUTH     169      BUTH     H8       HDP1A    0.430000       1.00800           0   0.00000       0.00000    
     17596 BUTH     169      BUTH     H9       DUMH      0.00000       1.00800           0   0.00000       0.00000    
     17597 BUTH     169      BUTH     LPO11    LPDO1   -0.287000       0.00000          -1   0.00000       0.00000    
     17598 BUTH     169      BUTH     LPO12    LPDO1   -0.288000       0.00000          -1   0.00000       0.00000    
     17599 BUTH     169      BUTH     LPO21    LPD     -0.302000       0.00000          -1   0.00000       0.00000    
     17600 BUTH     169      BUTH     LPO22    LPD     -0.303000       0.00000          -1   0.00000       0.00000    
     17601 BUTH     170      BUTH     C1       CD33A     2.05990       11.6110           0  -1.81190       1.18670    
     17602 BUTH     170      BUTH     DC1      DRUD     -2.33590      0.400000           0   0.00000       0.00000    
     17603 BUTH     170      BUTH     C2       CD32A     2.02070       11.6110           0  -1.59660       1.16930    
     17604 BUTH     170      BUTH     DC2      DRUD     -2.19270      0.400000           0   0.00000       0.00000    
     17605 BUTH     170      BUTH     C3       CD32A     1.98270       11.6110           0  -1.59660       1.16930    
     17606 BUTH     170      BUTH     DC3      DRUD     -2.19270      0.400000           0   0.00000       0.00000    
     17607 BUTH     170      BUTH     C4       CD2O3A    2.72690       11.6110           0  -1.26130       1.05430    
     17608 BUTH     170      BUTH     DC4      DRUD     -1.94890      0.400000           0   0.00000       0.00000    
     17609 BUTH     170      BUTH     O1       OD2C1A    1.46540       15.5994           0 -0.713100      0.569800    
     17610 BUTH     170      BUTH     DO1      DRUD     -1.46540      0.400000           0   0.00000       0.00000    
     17611 BUTH     170      BUTH     O2       OD31A     1.58240       15.5990           0 -0.831500      0.749400    
     17612 BUTH     170      BUTH     DO2      DRUD     -1.58240      0.400000           0   0.00000       0.00000    
     17613 BUTH     170      BUTH     H1       HDA3A    0.900000E-01   1.00800           0   0.00000       0.00000    
     17614 BUTH     170      BUTH     H2       HDA3A    0.900000E-01   1.00800           0   0.00000       0.00000    
     17615 BUTH     170      BUTH     H3       HDA3A    0.900000E-01   1.00800           0   0.00000       0.00000    
     17616 BUTH     170      BUTH     H4       HDA2A    0.900000E-01   1.00800           0   0.00000       0.00000    
     17617 BUTH     170      BUTH     H5       HDA2A    0.900000E-01   1.00800           0   0.00000       0.00000    
     17618 BUTH     170      BUTH     H6       HDA2A    0.900000E-01   1.00800           0   0.00000       0.00000    
     17619 BUTH     170      BUTH     H7       HDA2A    0.900000E-01   1.00800           0   0.00000       0.00000    
     17620 BUTH     170      BUTH     H8       HDP1A    0.430000       1.00800           0   0.00000       0.00000    
     17621 BUTH     170      BUTH     H9       DUMH      0.00000       1.00800           0   0.00000       0.00000    
     17622 BUTH     170      BUTH     LPO11    LPDO1   -0.287000       0.00000          -1   0.00000       0.00000    
     17623 BUTH     170      BUTH     LPO12    LPDO1   -0.288000       0.00000          -1   0.00000       0.00000    
     17624 BUTH     170      BUTH     LPO21    LPD     -0.302000       0.00000          -1   0.00000       0.00000    
     17625 BUTH     170      BUTH     LPO22    LPD     -0.303000       0.00000          -1   0.00000       0.00000    
     17626 BUTH     171      BUTH     C1       CD33A     2.05990       11.6110           0  -1.81190       1.18670    
     17627 BUTH     171      BUTH     DC1      DRUD     -2.33590      0.400000           0   0.00000       0.00000    
     17628 BUTH     171      BUTH     C2       CD32A     2.02070       11.6110           0  -1.59660       1.16930    
     17629 BUTH     171      BUTH     DC2      DRUD     -2.19270      0.400000           0   0.00000       0.00000    
     17630 BUTH     171      BUTH     C3       CD32A     1.98270       11.6110           0  -1.59660       1.16930    
     17631 BUTH     171      BUTH     DC3      DRUD     -2.19270      0.400000           0   0.00000       0.00000    
     17632 BUTH     171      BUTH     C4       CD2O3A    2.72690       11.6110           0  -1.26130       1.05430    
     17633 BUTH     171      BUTH     DC4      DRUD     -1.94890      0.400000           0   0.00000       0.00000    
     17634 BUTH     171      BUTH     O1       OD2C1A    1.46540       15.5994           0 -0.713100      0.569800    
     17635 BUTH     171      BUTH     DO1      DRUD     -1.46540      0.400000           0   0.00000       0.00000    
     17636 BUTH     171      BUTH     O2       OD31A     1.58240       15.5990           0 -0.831500      0.749400    
     17637 BUTH     171      BUTH     DO2      DRUD     -1.58240      0.400000           0   0.00000       0.00000    
     17638 BUTH     171      BUTH     H1       HDA3A    0.900000E-01   1.00800           0   0.00000       0.00000    
     17639 BUTH     171      BUTH     H2       HDA3A    0.900000E-01   1.00800           0   0.00000       0.00000    
     17640 BUTH     171      BUTH     H3       HDA3A    0.900000E-01   1.00800           0   0.00000       0.00000    
     17641 BUTH     171      BUTH     H4       HDA2A    0.900000E-01   1.00800           0   0.00000       0.00000    
     17642 BUTH     171      BUTH     H5       HDA2A    0.900000E-01   1.00800           0   0.00000       0.00000    
     17643 BUTH     171      BUTH     H6       HDA2A    0.900000E-01   1.00800           0   0.00000       0.00000    
     17644 BUTH     171      BUTH     H7       HDA2A    0.900000E-01   1.00800           0   0.00000       0.00000    
     17645 BUTH     171      BUTH     H8       HDP1A    0.430000       1.00800           0   0.00000       0.00000    
     17646 BUTH     171      BUTH     H9       DUMH      0.00000       1.00800           0   0.00000       0.00000    
     17647 BUTH     171      BUTH     LPO11    LPDO1   -0.287000       0.00000          -1   0.00000       0.00000    
     17648 BUTH     171      BUTH     LPO12    LPDO1   -0.288000       0.00000          -1   0.00000       0.00000    
     17649 BUTH     171      BUTH     LPO21    LPD     -0.302000       0.00000          -1   0.00000       0.00000    
     17650 BUTH     171      BUTH     LPO22    LPD     -0.303000       0.00000          -1   0.00000       0.00000    
     17651 BUTH     172      BUTH     C1       CD33A     2.05990       11.6110           0  -1.81190       1.18670    
     17652 BUTH     172      BUTH     DC1      DRUD     -2.33590      0.400000           0   0.00000       0.00000    
     17653 BUTH     172      BUTH     C2       CD32A     2.02070       11.6110           0  -1.59660       1.16930    
     17654 BUTH     172      BUTH     DC2      DRUD     -2.19270      0.400000           0   0.00000       0.00000    
     17655 BUTH     172      BUTH     C3       CD32A     1.98270       11.6110           0  -1.59660       1.16930    
     17656 BUTH     172      BUTH     DC3      DRUD     -2.19270      0.400000           0   0.00000       0.00000    
     17657 BUTH     172      BUTH     C4       CD2O3A    2.72690       11.6110           0  -1.26130       1.05430    
     17658 BUTH     172      BUTH     DC4      DRUD     -1.94890      0.400000           0   0.00000       0.00000    
     17659 BUTH     172      BUTH     O1       OD2C1A    1.46540       15.5994           0 -0.713100      0.569800    
     17660 BUTH     172      BUTH     DO1      DRUD     -1.46540      0.400000           0   0.00000       0.00000    
     17661 BUTH     172      BUTH     O2       OD31A     1.58240       15.5990           0 -0.831500      0.749400    
     17662 BUTH     172      BUTH     DO2      DRUD     -1.58240      0.400000           0   0.00000       0.00000    
     17663 BUTH     172      BUTH     H1       HDA3A    0.900000E-01   1.00800           0   0.00000       0.00000    
     17664 BUTH     172      BUTH     H2       HDA3A    0.900000E-01   1.00800           0   0.00000       0.00000    
     17665 BUTH     172      BUTH     H3       HDA3A    0.900000E-01   1.00800           0   0.00000       0.00000    
     17666 BUTH     172      BUTH     H4       HDA2A    0.900000E-01   1.00800           0   0.00000       0.00000    
     17667 BUTH     172      BUTH     H5       HDA2A    0.900000E-01   1.00800           0   0.00000       0.00000    
     17668 BUTH     172      BUTH     H6       HDA2A    0.900000E-01   1.00800           0   0.00000       0.00000    
     17669 BUTH     172      BUTH     H7       HDA2A    0.900000E-01   1.00800           0   0.00000       0.00000    
     17670 BUTH     172      BUTH     H8       HDP1A    0.430000       1.00800           0   0.00000       0.00000    
     17671 BUTH     172      BUTH     H9       DUMH      0.00000       1.00800           0   0.00000       0.00000    
     17672 BUTH     172      BUTH     LPO11    LPDO1   -0.287000       0.00000          -1   0.00000       0.00000    
     17673 BUTH     172      BUTH     LPO12    LPDO1   -0.288000       0.00000          -1   0.00000       0.00000    
     17674 BUTH     172      BUTH     LPO21    LPD     -0.302000       0.00000          -1   0.00000       0.00000    
     17675 BUTH     172      BUTH     LPO22    LPD     -0.303000       0.00000          -1   0.00000       0.00000    
     17676 BUTH     173      BUTH     C1       CD33A     2.05990       11.6110           0  -1.81190       1.18670    
     17677 BUTH     173      BUTH     DC1      DRUD     -2.33590      0.400000           0   0.00000       0.00000    
     17678 BUTH     173      BUTH     C2       CD32A     2.02070       11.6110           0  -1.59660       1.16930    
     17679 BUTH     173      BUTH     DC2      DRUD     -2.19270      0.400000           0   0.00000       0.00000    
     17680 BUTH     173      BUTH     C3       CD32A     1.98270       11.6110           0  -1.59660       1.16930    
     17681 BUTH     173      BUTH     DC3      DRUD     -2.19270      0.400000           0   0.00000       0.00000    
     17682 BUTH     173      BUTH     C4       CD2O3A    2.72690       11.6110           0  -1.26130       1.05430    
     17683 BUTH     173      BUTH     DC4      DRUD     -1.94890      0.400000           0   0.00000       0.00000    
     17684 BUTH     173      BUTH     O1       OD2C1A    1.46540       15.5994           0 -0.713100      0.569800    
     17685 BUTH     173      BUTH     DO1      DRUD     -1.46540      0.400000           0   0.00000       0.00000    
     17686 BUTH     173      BUTH     O2       OD31A     1.58240       15.5990           0 -0.831500      0.749400    
     17687 BUTH     173      BUTH     DO2      DRUD     -1.58240      0.400000           0   0.00000       0.00000    
     17688 BUTH     173      BUTH     H1       HDA3A    0.900000E-01   1.00800           0   0.00000       0.00000    
     17689 BUTH     173      BUTH     H2       HDA3A    0.900000E-01   1.00800           0   0.00000       0.00000    
     17690 BUTH     173      BUTH     H3       HDA3A    0.900000E-01   1.00800           0   0.00000       0.00000    
     17691 BUTH     173      BUTH     H4       HDA2A    0.900000E-01   1.00800           0   0.00000       0.00000    
     17692 BUTH     173      BUTH     H5       HDA2A    0.900000E-01   1.00800           0   0.00000       0.00000    
     17693 BUTH     173      BUTH     H6       HDA2A    0.900000E-01   1.00800           0   0.00000       0.00000    
     17694 BUTH     173      BUTH     H7       HDA2A    0.900000E-01   1.00800           0   0.00000       0.00000    
     17695 BUTH     173      BUTH     H8       HDP1A    0.430000       1.00800           0   0.00000       0.00000    
     17696 BUTH     173      BUTH     H9       DUMH      0.00000       1.00800           0   0.00000       0.00000    
     17697 BUTH     173      BUTH     LPO11    LPDO1   -0.287000       0.00000          -1   0.00000       0.00000    
     17698 BUTH     173      BUTH     LPO12    LPDO1   -0.288000       0.00000          -1   0.00000       0.00000    
     17699 BUTH     173      BUTH     LPO21    LPD     -0.302000       0.00000          -1   0.00000       0.00000    
     17700 BUTH     173      BUTH     LPO22    LPD     -0.303000       0.00000          -1   0.00000       0.00000    
     17701 BUTH     174      BUTH     C1       CD33A     2.05990       11.6110           0  -1.81190       1.18670    
     17702 BUTH     174      BUTH     DC1      DRUD     -2.33590      0.400000           0   0.00000       0.00000    
     17703 BUTH     174      BUTH     C2       CD32A     2.02070       11.6110           0  -1.59660       1.16930    
     17704 BUTH     174      BUTH     DC2      DRUD     -2.19270      0.400000           0   0.00000       0.00000    
     17705 BUTH     174      BUTH     C3       CD32A     1.98270       11.6110           0  -1.59660       1.16930    
     17706 BUTH     174      BUTH     DC3      DRUD     -2.19270      0.400000           0   0.00000       0.00000    
     17707 BUTH     174      BUTH     C4       CD2O3A    2.72690       11.6110           0  -1.26130       1.05430    
     17708 BUTH     174      BUTH     DC4      DRUD     -1.94890      0.400000           0   0.00000       0.00000    
     17709 BUTH     174      BUTH     O1       OD2C1A    1.46540       15.5994           0 -0.713100      0.569800    
     17710 BUTH     174      BUTH     DO1      DRUD     -1.46540      0.400000           0   0.00000       0.00000    
     17711 BUTH     174      BUTH     O2       OD31A     1.58240       15.5990           0 -0.831500      0.749400    
     17712 BUTH     174      BUTH     DO2      DRUD     -1.58240      0.400000           0   0.00000       0.00000    
     17713 BUTH     174      BUTH     H1       HDA3A    0.900000E-01   1.00800           0   0.00000       0.00000    
     17714 BUTH     174      BUTH     H2       HDA3A    0.900000E-01   1.00800           0   0.00000       0.00000    
     17715 BUTH     174      BUTH     H3       HDA3A    0.900000E-01   1.00800           0   0.00000       0.00000    
     17716 BUTH     174      BUTH     H4       HDA2A    0.900000E-01   1.00800           0   0.00000       0.00000    
     17717 BUTH     174      BUTH     H5       HDA2A    0.900000E-01   1.00800           0   0.00000       0.00000    
     17718 BUTH     174      BUTH     H6       HDA2A    0.900000E-01   1.00800           0   0.00000       0.00000    
     17719 BUTH     174      BUTH     H7       HDA2A    0.900000E-01   1.00800           0   0.00000       0.00000    
     17720 BUTH     174      BUTH     H8       HDP1A    0.430000       1.00800           0   0.00000       0.00000    
     17721 BUTH     174      BUTH     H9       DUMH      0.00000       1.00800           0   0.00000       0.00000    
     17722 BUTH     174      BUTH     LPO11    LPDO1   -0.287000       0.00000          -1   0.00000       0.00000    
     17723 BUTH     174      BUTH     LPO12    LPDO1   -0.288000       0.00000          -1   0.00000       0.00000    
     17724 BUTH     174      BUTH     LPO21    LPD     -0.302000       0.00000          -1   0.00000       0.00000    
     17725 BUTH     174      BUTH     LPO22    LPD     -0.303000       0.00000          -1   0.00000       0.00000    
     17726 BUTH     175      BUTH     C1       CD33A     2.05990       11.6110           0  -1.81190       1.18670    
     17727 BUTH     175      BUTH     DC1      DRUD     -2.33590      0.400000           0   0.00000       0.00000    
     17728 BUTH     175      BUTH     C2       CD32A     2.02070       11.6110           0  -1.59660       1.16930    
     17729 BUTH     175      BUTH     DC2      DRUD     -2.19270      0.400000           0   0.00000       0.00000    
     17730 BUTH     175      BUTH     C3       CD32A     1.98270       11.6110           0  -1.59660       1.16930    
     17731 BUTH     175      BUTH     DC3      DRUD     -2.19270      0.400000           0   0.00000       0.00000    
     17732 BUTH     175      BUTH     C4       CD2O3A    2.72690       11.6110           0  -1.26130       1.05430    
     17733 BUTH     175      BUTH     DC4      DRUD     -1.94890      0.400000           0   0.00000       0.00000    
     17734 BUTH     175      BUTH     O1       OD2C1A    1.46540       15.5994           0 -0.713100      0.569800    
     17735 BUTH     175      BUTH     DO1      DRUD     -1.46540      0.400000           0   0.00000       0.00000    
     17736 BUTH     175      BUTH     O2       OD31A     1.58240       15.5990           0 -0.831500      0.749400    
     17737 BUTH     175      BUTH     DO2      DRUD     -1.58240      0.400000           0   0.00000       0.00000    
     17738 BUTH     175      BUTH     H1       HDA3A    0.900000E-01   1.00800           0   0.00000       0.00000    
     17739 BUTH     175      BUTH     H2       HDA3A    0.900000E-01   1.00800           0   0.00000       0.00000    
     17740 BUTH     175      BUTH     H3       HDA3A    0.900000E-01   1.00800           0   0.00000       0.00000    
     17741 BUTH     175      BUTH     H4       HDA2A    0.900000E-01   1.00800           0   0.00000       0.00000    
     17742 BUTH     175      BUTH     H5       HDA2A    0.900000E-01   1.00800           0   0.00000       0.00000    
     17743 BUTH     175      BUTH     H6       HDA2A    0.900000E-01   1.00800           0   0.00000       0.00000    
     17744 BUTH     175      BUTH     H7       HDA2A    0.900000E-01   1.00800           0   0.00000       0.00000    
     17745 BUTH     175      BUTH     H8       HDP1A    0.430000       1.00800           0   0.00000       0.00000    
     17746 BUTH     175      BUTH     H9       DUMH      0.00000       1.00800           0   0.00000       0.00000    
     17747 BUTH     175      BUTH     LPO11    LPDO1   -0.287000       0.00000          -1   0.00000       0.00000    
     17748 BUTH     175      BUTH     LPO12    LPDO1   -0.288000       0.00000          -1   0.00000       0.00000    
     17749 BUTH     175      BUTH     LPO21    LPD     -0.302000       0.00000          -1   0.00000       0.00000    
     17750 BUTH     175      BUTH     LPO22    LPD     -0.303000       0.00000          -1   0.00000       0.00000    
     17751 BUTH     176      BUTH     C1       CD33A     2.05990       11.6110           0  -1.81190       1.18670    
     17752 BUTH     176      BUTH     DC1      DRUD     -2.33590      0.400000           0   0.00000       0.00000    
     17753 BUTH     176      BUTH     C2       CD32A     2.02070       11.6110           0  -1.59660       1.16930    
     17754 BUTH     176      BUTH     DC2      DRUD     -2.19270      0.400000           0   0.00000       0.00000    
     17755 BUTH     176      BUTH     C3       CD32A     1.98270       11.6110           0  -1.59660       1.16930    
     17756 BUTH     176      BUTH     DC3      DRUD     -2.19270      0.400000           0   0.00000       0.00000    
     17757 BUTH     176      BUTH     C4       CD2O3A    2.72690       11.6110           0  -1.26130       1.05430    
     17758 BUTH     176      BUTH     DC4      DRUD     -1.94890      0.400000           0   0.00000       0.00000    
     17759 BUTH     176      BUTH     O1       OD2C1A    1.46540       15.5994           0 -0.713100      0.569800    
     17760 BUTH     176      BUTH     DO1      DRUD     -1.46540      0.400000           0   0.00000       0.00000    
     17761 BUTH     176      BUTH     O2       OD31A     1.58240       15.5990           0 -0.831500      0.749400    
     17762 BUTH     176      BUTH     DO2      DRUD     -1.58240      0.400000           0   0.00000       0.00000    
     17763 BUTH     176      BUTH     H1       HDA3A    0.900000E-01   1.00800           0   0.00000       0.00000    
     17764 BUTH     176      BUTH     H2       HDA3A    0.900000E-01   1.00800           0   0.00000       0.00000    
     17765 BUTH     176      BUTH     H3       HDA3A    0.900000E-01   1.00800           0   0.00000       0.00000    
     17766 BUTH     176      BUTH     H4       HDA2A    0.900000E-01   1.00800           0   0.00000       0.00000    
     17767 BUTH     176      BUTH     H5       HDA2A    0.900000E-01   1.00800           0   0.00000       0.00000    
     17768 BUTH     176      BUTH     H6       HDA2A    0.900000E-01   1.00800           0   0.00000       0.00000    
     17769 BUTH     176      BUTH     H7       HDA2A    0.900000E-01   1.00800           0   0.00000       0.00000    
     17770 BUTH     176      BUTH     H8       HDP1A    0.430000       1.00800           0   0.00000       0.00000    
     17771 BUTH     176      BUTH     H9       DUMH      0.00000       1.00800           0   0.00000       0.00000    
     17772 BUTH     176      BUTH     LPO11    LPDO1   -0.287000       0.00000          -1   0.00000       0.00000    
     17773 BUTH     176      BUTH     LPO12    LPDO1   -0.288000       0.00000          -1   0.00000       0.00000    
     17774 BUTH     176      BUTH     LPO21    LPD     -0.302000       0.00000          -1   0.00000       0.00000    
     17775 BUTH     176      BUTH     LPO22    LPD     -0.303000       0.00000          -1   0.00000       0.00000    
     17776 BUTH     177      BUTH     C1       CD33A     2.05990       11.6110           0  -1.81190       1.18670    
     17777 BUTH     177      BUTH     DC1      DRUD     -2.33590      0.400000           0   0.00000       0.00000    
     17778 BUTH     177      BUTH     C2       CD32A     2.02070       11.6110           0  -1.59660       1.16930    
     17779 BUTH     177      BUTH     DC2      DRUD     -2.19270      0.400000           0   0.00000       0.00000    
     17780 BUTH     177      BUTH     C3       CD32A     1.98270       11.6110           0  -1.59660       1.16930    
     17781 BUTH     177      BUTH     DC3      DRUD     -2.19270      0.400000           0   0.00000       0.00000    
     17782 BUTH     177      BUTH     C4       CD2O3A    2.72690       11.6110           0  -1.26130       1.05430    
     17783 BUTH     177      BUTH     DC4      DRUD     -1.94890      0.400000           0   0.00000       0.00000    
     17784 BUTH     177      BUTH     O1       OD2C1A    1.46540       15.5994           0 -0.713100      0.569800    
     17785 BUTH     177      BUTH     DO1      DRUD     -1.46540      0.400000           0   0.00000       0.00000    
     17786 BUTH     177      BUTH     O2       OD31A     1.58240       15.5990           0 -0.831500      0.749400    
     17787 BUTH     177      BUTH     DO2      DRUD     -1.58240      0.400000           0   0.00000       0.00000    
     17788 BUTH     177      BUTH     H1       HDA3A    0.900000E-01   1.00800           0   0.00000       0.00000    
     17789 BUTH     177      BUTH     H2       HDA3A    0.900000E-01   1.00800           0   0.00000       0.00000    
     17790 BUTH     177      BUTH     H3       HDA3A    0.900000E-01   1.00800           0   0.00000       0.00000    
     17791 BUTH     177      BUTH     H4       HDA2A    0.900000E-01   1.00800           0   0.00000       0.00000    
     17792 BUTH     177      BUTH     H5       HDA2A    0.900000E-01   1.00800           0   0.00000       0.00000    
     17793 BUTH     177      BUTH     H6       HDA2A    0.900000E-01   1.00800           0   0.00000       0.00000    
     17794 BUTH     177      BUTH     H7       HDA2A    0.900000E-01   1.00800           0   0.00000       0.00000    
     17795 BUTH     177      BUTH     H8       HDP1A    0.430000       1.00800           0   0.00000       0.00000    
     17796 BUTH     177      BUTH     H9       DUMH      0.00000       1.00800           0   0.00000       0.00000    
     17797 BUTH     177      BUTH     LPO11    LPDO1   -0.287000       0.00000          -1   0.00000       0.00000    
     17798 BUTH     177      BUTH     LPO12    LPDO1   -0.288000       0.00000          -1   0.00000       0.00000    
     17799 BUTH     177      BUTH     LPO21    LPD     -0.302000       0.00000          -1   0.00000       0.00000    
     17800 BUTH     177      BUTH     LPO22    LPD     -0.303000       0.00000          -1   0.00000       0.00000    
     17801 BUTH     178      BUTH     C1       CD33A     2.05990       11.6110           0  -1.81190       1.18670    
     17802 BUTH     178      BUTH     DC1      DRUD     -2.33590      0.400000           0   0.00000       0.00000    
     17803 BUTH     178      BUTH     C2       CD32A     2.02070       11.6110           0  -1.59660       1.16930    
     17804 BUTH     178      BUTH     DC2      DRUD     -2.19270      0.400000           0   0.00000       0.00000    
     17805 BUTH     178      BUTH     C3       CD32A     1.98270       11.6110           0  -1.59660       1.16930    
     17806 BUTH     178      BUTH     DC3      DRUD     -2.19270      0.400000           0   0.00000       0.00000    
     17807 BUTH     178      BUTH     C4       CD2O3A    2.72690       11.6110           0  -1.26130       1.05430    
     17808 BUTH     178      BUTH     DC4      DRUD     -1.94890      0.400000           0   0.00000       0.00000    
     17809 BUTH     178      BUTH     O1       OD2C1A    1.46540       15.5994           0 -0.713100      0.569800    
     17810 BUTH     178      BUTH     DO1      DRUD     -1.46540      0.400000           0   0.00000       0.00000    
     17811 BUTH     178      BUTH     O2       OD31A     1.58240       15.5990           0 -0.831500      0.749400    
     17812 BUTH     178      BUTH     DO2      DRUD     -1.58240      0.400000           0   0.00000       0.00000    
     17813 BUTH     178      BUTH     H1       HDA3A    0.900000E-01   1.00800           0   0.00000       0.00000    
     17814 BUTH     178      BUTH     H2       HDA3A    0.900000E-01   1.00800           0   0.00000       0.00000    
     17815 BUTH     178      BUTH     H3       HDA3A    0.900000E-01   1.00800           0   0.00000       0.00000    
     17816 BUTH     178      BUTH     H4       HDA2A    0.900000E-01   1.00800           0   0.00000       0.00000    
     17817 BUTH     178      BUTH     H5       HDA2A    0.900000E-01   1.00800           0   0.00000       0.00000    
     17818 BUTH     178      BUTH     H6       HDA2A    0.900000E-01   1.00800           0   0.00000       0.00000    
     17819 BUTH     178      BUTH     H7       HDA2A    0.900000E-01   1.00800           0   0.00000       0.00000    
     17820 BUTH     178      BUTH     H8       HDP1A    0.430000       1.00800           0   0.00000       0.00000    
     17821 BUTH     178      BUTH     H9       DUMH      0.00000       1.00800           0   0.00000       0.00000    
     17822 BUTH     178      BUTH     LPO11    LPDO1   -0.287000       0.00000          -1   0.00000       0.00000    
     17823 BUTH     178      BUTH     LPO12    LPDO1   -0.288000       0.00000          -1   0.00000       0.00000    
     17824 BUTH     178      BUTH     LPO21    LPD     -0.302000       0.00000          -1   0.00000       0.00000    
     17825 BUTH     178      BUTH     LPO22    LPD     -0.303000       0.00000          -1   0.00000       0.00000    
     17826 BUTH     179      BUTH     C1       CD33A     2.05990       11.6110           0  -1.81190       1.18670    
     17827 BUTH     179      BUTH     DC1      DRUD     -2.33590      0.400000           0   0.00000       0.00000    
     17828 BUTH     179      BUTH     C2       CD32A     2.02070       11.6110           0  -1.59660       1.16930    
     17829 BUTH     179      BUTH     DC2      DRUD     -2.19270      0.400000           0   0.00000       0.00000    
     17830 BUTH     179      BUTH     C3       CD32A     1.98270       11.6110           0  -1.59660       1.16930    
     17831 BUTH     179      BUTH     DC3      DRUD     -2.19270      0.400000           0   0.00000       0.00000    
     17832 BUTH     179      BUTH     C4       CD2O3A    2.72690       11.6110           0  -1.26130       1.05430    
     17833 BUTH     179      BUTH     DC4      DRUD     -1.94890      0.400000           0   0.00000       0.00000    
     17834 BUTH     179      BUTH     O1       OD2C1A    1.46540       15.5994           0 -0.713100      0.569800    
     17835 BUTH     179      BUTH     DO1      DRUD     -1.46540      0.400000           0   0.00000       0.00000    
     17836 BUTH     179      BUTH     O2       OD31A     1.58240       15.5990           0 -0.831500      0.749400    
     17837 BUTH     179      BUTH     DO2      DRUD     -1.58240      0.400000           0   0.00000       0.00000    
     17838 BUTH     179      BUTH     H1       HDA3A    0.900000E-01   1.00800           0   0.00000       0.00000    
     17839 BUTH     179      BUTH     H2       HDA3A    0.900000E-01   1.00800           0   0.00000       0.00000    
     17840 BUTH     179      BUTH     H3       HDA3A    0.900000E-01   1.00800           0   0.00000       0.00000    
     17841 BUTH     179      BUTH     H4       HDA2A    0.900000E-01   1.00800           0   0.00000       0.00000    
     17842 BUTH     179      BUTH     H5       HDA2A    0.900000E-01   1.00800           0   0.00000       0.00000    
     17843 BUTH     179      BUTH     H6       HDA2A    0.900000E-01   1.00800           0   0.00000       0.00000    
     17844 BUTH     179      BUTH     H7       HDA2A    0.900000E-01   1.00800           0   0.00000       0.00000    
     17845 BUTH     179      BUTH     H8       HDP1A    0.430000       1.00800           0   0.00000       0.00000    
     17846 BUTH     179      BUTH     H9       DUMH      0.00000       1.00800           0   0.00000       0.00000    
     17847 BUTH     179      BUTH     LPO11    LPDO1   -0.287000       0.00000          -1   0.00000       0.00000    
     17848 BUTH     179      BUTH     LPO12    LPDO1   -0.288000       0.00000          -1   0.00000       0.00000    
     17849 BUTH     179      BUTH     LPO21    LPD     -0.302000       0.00000          -1   0.00000       0.00000    
     17850 BUTH     179      BUTH     LPO22    LPD     -0.303000       0.00000          -1   0.00000       0.00000    
     17851 BUTH     180      BUTH     C1       CD33A     2.05990       11.6110           0  -1.81190       1.18670    
     17852 BUTH     180      BUTH     DC1      DRUD     -2.33590      0.400000           0   0.00000       0.00000    
     17853 BUTH     180      BUTH     C2       CD32A     2.02070       11.6110           0  -1.59660       1.16930    
     17854 BUTH     180      BUTH     DC2      DRUD     -2.19270      0.400000           0   0.00000       0.00000    
     17855 BUTH     180      BUTH     C3       CD32A     1.98270       11.6110           0  -1.59660       1.16930    
     17856 BUTH     180      BUTH     DC3      DRUD     -2.19270      0.400000           0   0.00000       0.00000    
     17857 BUTH     180      BUTH     C4       CD2O3A    2.72690       11.6110           0  -1.26130       1.05430    
     17858 BUTH     180      BUTH     DC4      DRUD     -1.94890      0.400000           0   0.00000       0.00000    
     17859 BUTH     180      BUTH     O1       OD2C1A    1.46540       15.5994           0 -0.713100      0.569800    
     17860 BUTH     180      BUTH     DO1      DRUD     -1.46540      0.400000           0   0.00000       0.00000    
     17861 BUTH     180      BUTH     O2       OD31A     1.58240       15.5990           0 -0.831500      0.749400    
     17862 BUTH     180      BUTH     DO2      DRUD     -1.58240      0.400000           0   0.00000       0.00000    
     17863 BUTH     180      BUTH     H1       HDA3A    0.900000E-01   1.00800           0   0.00000       0.00000    
     17864 BUTH     180      BUTH     H2       HDA3A    0.900000E-01   1.00800           0   0.00000       0.00000    
     17865 BUTH     180      BUTH     H3       HDA3A    0.900000E-01   1.00800           0   0.00000       0.00000    
     17866 BUTH     180      BUTH     H4       HDA2A    0.900000E-01   1.00800           0   0.00000       0.00000    
     17867 BUTH     180      BUTH     H5       HDA2A    0.900000E-01   1.00800           0   0.00000       0.00000    
     17868 BUTH     180      BUTH     H6       HDA2A    0.900000E-01   1.00800           0   0.00000       0.00000    
     17869 BUTH     180      BUTH     H7       HDA2A    0.900000E-01   1.00800           0   0.00000       0.00000    
     17870 BUTH     180      BUTH     H8       HDP1A    0.430000       1.00800           0   0.00000       0.00000    
     17871 BUTH     180      BUTH     H9       DUMH      0.00000       1.00800           0   0.00000       0.00000    
     17872 BUTH     180      BUTH     LPO11    LPDO1   -0.287000       0.00000          -1   0.00000       0.00000    
     17873 BUTH     180      BUTH     LPO12    LPDO1   -0.288000       0.00000          -1   0.00000       0.00000    
     17874 BUTH     180      BUTH     LPO21    LPD     -0.302000       0.00000          -1   0.00000       0.00000    
     17875 BUTH     180      BUTH     LPO22    LPD     -0.303000       0.00000          -1   0.00000       0.00000    
     17876 BUTH     181      BUTH     C1       CD33A     2.05990       11.6110           0  -1.81190       1.18670    
     17877 BUTH     181      BUTH     DC1      DRUD     -2.33590      0.400000           0   0.00000       0.00000    
     17878 BUTH     181      BUTH     C2       CD32A     2.02070       11.6110           0  -1.59660       1.16930    
     17879 BUTH     181      BUTH     DC2      DRUD     -2.19270      0.400000           0   0.00000       0.00000    
     17880 BUTH     181      BUTH     C3       CD32A     1.98270       11.6110           0  -1.59660       1.16930    
     17881 BUTH     181      BUTH     DC3      DRUD     -2.19270      0.400000           0   0.00000       0.00000    
     17882 BUTH     181      BUTH     C4       CD2O3A    2.72690       11.6110           0  -1.26130       1.05430    
     17883 BUTH     181      BUTH     DC4      DRUD     -1.94890      0.400000           0   0.00000       0.00000    
     17884 BUTH     181      BUTH     O1       OD2C1A    1.46540       15.5994           0 -0.713100      0.569800    
     17885 BUTH     181      BUTH     DO1      DRUD     -1.46540      0.400000           0   0.00000       0.00000    
     17886 BUTH     181      BUTH     O2       OD31A     1.58240       15.5990           0 -0.831500      0.749400    
     17887 BUTH     181      BUTH     DO2      DRUD     -1.58240      0.400000           0   0.00000       0.00000    
     17888 BUTH     181      BUTH     H1       HDA3A    0.900000E-01   1.00800           0   0.00000       0.00000    
     17889 BUTH     181      BUTH     H2       HDA3A    0.900000E-01   1.00800           0   0.00000       0.00000    
     17890 BUTH     181      BUTH     H3       HDA3A    0.900000E-01   1.00800           0   0.00000       0.00000    
     17891 BUTH     181      BUTH     H4       HDA2A    0.900000E-01   1.00800           0   0.00000       0.00000    
     17892 BUTH     181      BUTH     H5       HDA2A    0.900000E-01   1.00800           0   0.00000       0.00000    
     17893 BUTH     181      BUTH     H6       HDA2A    0.900000E-01   1.00800           0   0.00000       0.00000    
     17894 BUTH     181      BUTH     H7       HDA2A    0.900000E-01   1.00800           0   0.00000       0.00000    
     17895 BUTH     181      BUTH     H8       HDP1A    0.430000       1.00800           0   0.00000       0.00000    
     17896 BUTH     181      BUTH     H9       DUMH      0.00000       1.00800           0   0.00000       0.00000    
     17897 BUTH     181      BUTH     LPO11    LPDO1   -0.287000       0.00000          -1   0.00000       0.00000    
     17898 BUTH     181      BUTH     LPO12    LPDO1   -0.288000       0.00000          -1   0.00000       0.00000    
     17899 BUTH     181      BUTH     LPO21    LPD     -0.302000       0.00000          -1   0.00000       0.00000    
     17900 BUTH     181      BUTH     LPO22    LPD     -0.303000       0.00000          -1   0.00000       0.00000    
     17901 BUTH     182      BUTH     C1       CD33A     2.05990       11.6110           0  -1.81190       1.18670    
     17902 BUTH     182      BUTH     DC1      DRUD     -2.33590      0.400000           0   0.00000       0.00000    
     17903 BUTH     182      BUTH     C2       CD32A     2.02070       11.6110           0  -1.59660       1.16930    
     17904 BUTH     182      BUTH     DC2      DRUD     -2.19270      0.400000           0   0.00000       0.00000    
     17905 BUTH     182      BUTH     C3       CD32A     1.98270       11.6110           0  -1.59660       1.16930    
     17906 BUTH     182      BUTH     DC3      DRUD     -2.19270      0.400000           0   0.00000       0.00000    
     17907 BUTH     182      BUTH     C4       CD2O3A    2.72690       11.6110           0  -1.26130       1.05430    
     17908 BUTH     182      BUTH     DC4      DRUD     -1.94890      0.400000           0   0.00000       0.00000    
     17909 BUTH     182      BUTH     O1       OD2C1A    1.46540       15.5994           0 -0.713100      0.569800    
     17910 BUTH     182      BUTH     DO1      DRUD     -1.46540      0.400000           0   0.00000       0.00000    
     17911 BUTH     182      BUTH     O2       OD31A     1.58240       15.5990           0 -0.831500      0.749400    
     17912 BUTH     182      BUTH     DO2      DRUD     -1.58240      0.400000           0   0.00000       0.00000    
     17913 BUTH     182      BUTH     H1       HDA3A    0.900000E-01   1.00800           0   0.00000       0.00000    
     17914 BUTH     182      BUTH     H2       HDA3A    0.900000E-01   1.00800           0   0.00000       0.00000    
     17915 BUTH     182      BUTH     H3       HDA3A    0.900000E-01   1.00800           0   0.00000       0.00000    
     17916 BUTH     182      BUTH     H4       HDA2A    0.900000E-01   1.00800           0   0.00000       0.00000    
     17917 BUTH     182      BUTH     H5       HDA2A    0.900000E-01   1.00800           0   0.00000       0.00000    
     17918 BUTH     182      BUTH     H6       HDA2A    0.900000E-01   1.00800           0   0.00000       0.00000    
     17919 BUTH     182      BUTH     H7       HDA2A    0.900000E-01   1.00800           0   0.00000       0.00000    
     17920 BUTH     182      BUTH     H8       HDP1A    0.430000       1.00800           0   0.00000       0.00000    
     17921 BUTH     182      BUTH     H9       DUMH      0.00000       1.00800           0   0.00000       0.00000    
     17922 BUTH     182      BUTH     LPO11    LPDO1   -0.287000       0.00000          -1   0.00000       0.00000    
     17923 BUTH     182      BUTH     LPO12    LPDO1   -0.288000       0.00000          -1   0.00000       0.00000    
     17924 BUTH     182      BUTH     LPO21    LPD     -0.302000       0.00000          -1   0.00000       0.00000    
     17925 BUTH     182      BUTH     LPO22    LPD     -0.303000       0.00000          -1   0.00000       0.00000    
     17926 BUTH     183      BUTH     C1       CD33A     2.05990       11.6110           0  -1.81190       1.18670    
     17927 BUTH     183      BUTH     DC1      DRUD     -2.33590      0.400000           0   0.00000       0.00000    
     17928 BUTH     183      BUTH     C2       CD32A     2.02070       11.6110           0  -1.59660       1.16930    
     17929 BUTH     183      BUTH     DC2      DRUD     -2.19270      0.400000           0   0.00000       0.00000    
     17930 BUTH     183      BUTH     C3       CD32A     1.98270       11.6110           0  -1.59660       1.16930    
     17931 BUTH     183      BUTH     DC3      DRUD     -2.19270      0.400000           0   0.00000       0.00000    
     17932 BUTH     183      BUTH     C4       CD2O3A    2.72690       11.6110           0  -1.26130       1.05430    
     17933 BUTH     183      BUTH     DC4      DRUD     -1.94890      0.400000           0   0.00000       0.00000    
     17934 BUTH     183      BUTH     O1       OD2C1A    1.46540       15.5994           0 -0.713100      0.569800    
     17935 BUTH     183      BUTH     DO1      DRUD     -1.46540      0.400000           0   0.00000       0.00000    
     17936 BUTH     183      BUTH     O2       OD31A     1.58240       15.5990           0 -0.831500      0.749400    
     17937 BUTH     183      BUTH     DO2      DRUD     -1.58240      0.400000           0   0.00000       0.00000    
     17938 BUTH     183      BUTH     H1       HDA3A    0.900000E-01   1.00800           0   0.00000       0.00000    
     17939 BUTH     183      BUTH     H2       HDA3A    0.900000E-01   1.00800           0   0.00000       0.00000    
     17940 BUTH     183      BUTH     H3       HDA3A    0.900000E-01   1.00800           0   0.00000       0.00000    
     17941 BUTH     183      BUTH     H4       HDA2A    0.900000E-01   1.00800           0   0.00000       0.00000    
     17942 BUTH     183      BUTH     H5       HDA2A    0.900000E-01   1.00800           0   0.00000       0.00000    
     17943 BUTH     183      BUTH     H6       HDA2A    0.900000E-01   1.00800           0   0.00000       0.00000    
     17944 BUTH     183      BUTH     H7       HDA2A    0.900000E-01   1.00800           0   0.00000       0.00000    
     17945 BUTH     183      BUTH     H8       HDP1A    0.430000       1.00800           0   0.00000       0.00000    
     17946 BUTH     183      BUTH     H9       DUMH      0.00000       1.00800           0   0.00000       0.00000    
     17947 BUTH     183      BUTH     LPO11    LPDO1   -0.287000       0.00000          -1   0.00000       0.00000    
     17948 BUTH     183      BUTH     LPO12    LPDO1   -0.288000       0.00000          -1   0.00000       0.00000    
     17949 BUTH     183      BUTH     LPO21    LPD     -0.302000       0.00000          -1   0.00000       0.00000    
     17950 BUTH     183      BUTH     LPO22    LPD     -0.303000       0.00000          -1   0.00000       0.00000    
     17951 BUTH     184      BUTH     C1       CD33A     2.05990       11.6110           0  -1.81190       1.18670    
     17952 BUTH     184      BUTH     DC1      DRUD     -2.33590      0.400000           0   0.00000       0.00000    
     17953 BUTH     184      BUTH     C2       CD32A     2.02070       11.6110           0  -1.59660       1.16930    
     17954 BUTH     184      BUTH     DC2      DRUD     -2.19270      0.400000           0   0.00000       0.00000    
     17955 BUTH     184      BUTH     C3       CD32A     1.98270       11.6110           0  -1.59660       1.16930    
     17956 BUTH     184      BUTH     DC3      DRUD     -2.19270      0.400000           0   0.00000       0.00000    
     17957 BUTH     184      BUTH     C4       CD2O3A    2.72690       11.6110           0  -1.26130       1.05430    
     17958 BUTH     184      BUTH     DC4      DRUD     -1.94890      0.400000           0   0.00000       0.00000    
     17959 BUTH     184      BUTH     O1       OD2C1A    1.46540       15.5994           0 -0.713100      0.569800    
     17960 BUTH     184      BUTH     DO1      DRUD     -1.46540      0.400000           0   0.00000       0.00000    
     17961 BUTH     184      BUTH     O2       OD31A     1.58240       15.5990           0 -0.831500      0.749400    
     17962 BUTH     184      BUTH     DO2      DRUD     -1.58240      0.400000           0   0.00000       0.00000    
     17963 BUTH     184      BUTH     H1       HDA3A    0.900000E-01   1.00800           0   0.00000       0.00000    
     17964 BUTH     184      BUTH     H2       HDA3A    0.900000E-01   1.00800           0   0.00000       0.00000    
     17965 BUTH     184      BUTH     H3       HDA3A    0.900000E-01   1.00800           0   0.00000       0.00000    
     17966 BUTH     184      BUTH     H4       HDA2A    0.900000E-01   1.00800           0   0.00000       0.00000    
     17967 BUTH     184      BUTH     H5       HDA2A    0.900000E-01   1.00800           0   0.00000       0.00000    
     17968 BUTH     184      BUTH     H6       HDA2A    0.900000E-01   1.00800           0   0.00000       0.00000    
     17969 BUTH     184      BUTH     H7       HDA2A    0.900000E-01   1.00800           0   0.00000       0.00000    
     17970 BUTH     184      BUTH     H8       HDP1A    0.430000       1.00800           0   0.00000       0.00000    
     17971 BUTH     184      BUTH     H9       DUMH      0.00000       1.00800           0   0.00000       0.00000    
     17972 BUTH     184      BUTH     LPO11    LPDO1   -0.287000       0.00000          -1   0.00000       0.00000    
     17973 BUTH     184      BUTH     LPO12    LPDO1   -0.288000       0.00000          -1   0.00000       0.00000    
     17974 BUTH     184      BUTH     LPO21    LPD     -0.302000       0.00000          -1   0.00000       0.00000    
     17975 BUTH     184      BUTH     LPO22    LPD     -0.303000       0.00000          -1   0.00000       0.00000    
     17976 BUTH     185      BUTH     C1       CD33A     2.05990       11.6110           0  -1.81190       1.18670    
     17977 BUTH     185      BUTH     DC1      DRUD     -2.33590      0.400000           0   0.00000       0.00000    
     17978 BUTH     185      BUTH     C2       CD32A     2.02070       11.6110           0  -1.59660       1.16930    
     17979 BUTH     185      BUTH     DC2      DRUD     -2.19270      0.400000           0   0.00000       0.00000    
     17980 BUTH     185      BUTH     C3       CD32A     1.98270       11.6110           0  -1.59660       1.16930    
     17981 BUTH     185      BUTH     DC3      DRUD     -2.19270      0.400000           0   0.00000       0.00000    
     17982 BUTH     185      BUTH     C4       CD2O3A    2.72690       11.6110           0  -1.26130       1.05430    
     17983 BUTH     185      BUTH     DC4      DRUD     -1.94890      0.400000           0   0.00000       0.00000    
     17984 BUTH     185      BUTH     O1       OD2C1A    1.46540       15.5994           0 -0.713100      0.569800    
     17985 BUTH     185      BUTH     DO1      DRUD     -1.46540      0.400000           0   0.00000       0.00000    
     17986 BUTH     185      BUTH     O2       OD31A     1.58240       15.5990           0 -0.831500      0.749400    
     17987 BUTH     185      BUTH     DO2      DRUD     -1.58240      0.400000           0   0.00000       0.00000    
     17988 BUTH     185      BUTH     H1       HDA3A    0.900000E-01   1.00800           0   0.00000       0.00000    
     17989 BUTH     185      BUTH     H2       HDA3A    0.900000E-01   1.00800           0   0.00000       0.00000    
     17990 BUTH     185      BUTH     H3       HDA3A    0.900000E-01   1.00800           0   0.00000       0.00000    
     17991 BUTH     185      BUTH     H4       HDA2A    0.900000E-01   1.00800           0   0.00000       0.00000    
     17992 BUTH     185      BUTH     H5       HDA2A    0.900000E-01   1.00800           0   0.00000       0.00000    
     17993 BUTH     185      BUTH     H6       HDA2A    0.900000E-01   1.00800           0   0.00000       0.00000    
     17994 BUTH     185      BUTH     H7       HDA2A    0.900000E-01   1.00800           0   0.00000       0.00000    
     17995 BUTH     185      BUTH     H8       HDP1A    0.430000       1.00800           0   0.00000       0.00000    
     17996 BUTH     185      BUTH     H9       DUMH      0.00000       1.00800           0   0.00000       0.00000    
     17997 BUTH     185      BUTH     LPO11    LPDO1   -0.287000       0.00000          -1   0.00000       0.00000    
     17998 BUTH     185      BUTH     LPO12    LPDO1   -0.288000       0.00000          -1   0.00000       0.00000    
     17999 BUTH     185      BUTH     LPO21    LPD     -0.302000       0.00000          -1   0.00000       0.00000    
     18000 BUTH     185      BUTH     LPO22    LPD     -0.303000       0.00000          -1   0.00000       0.00000    
     18001 BUTH     186      BUTH     C1       CD33A     2.05990       11.6110           0  -1.81190       1.18670    
     18002 BUTH     186      BUTH     DC1      DRUD     -2.33590      0.400000           0   0.00000       0.00000    
     18003 BUTH     186      BUTH     C2       CD32A     2.02070       11.6110           0  -1.59660       1.16930    
     18004 BUTH     186      BUTH     DC2      DRUD     -2.19270      0.400000           0   0.00000       0.00000    
     18005 BUTH     186      BUTH     C3       CD32A     1.98270       11.6110           0  -1.59660       1.16930    
     18006 BUTH     186      BUTH     DC3      DRUD     -2.19270      0.400000           0   0.00000       0.00000    
     18007 BUTH     186      BUTH     C4       CD2O3A    2.72690       11.6110           0  -1.26130       1.05430    
     18008 BUTH     186      BUTH     DC4      DRUD     -1.94890      0.400000           0   0.00000       0.00000    
     18009 BUTH     186      BUTH     O1       OD2C1A    1.46540       15.5994           0 -0.713100      0.569800    
     18010 BUTH     186      BUTH     DO1      DRUD     -1.46540      0.400000           0   0.00000       0.00000    
     18011 BUTH     186      BUTH     O2       OD31A     1.58240       15.5990           0 -0.831500      0.749400    
     18012 BUTH     186      BUTH     DO2      DRUD     -1.58240      0.400000           0   0.00000       0.00000    
     18013 BUTH     186      BUTH     H1       HDA3A    0.900000E-01   1.00800           0   0.00000       0.00000    
     18014 BUTH     186      BUTH     H2       HDA3A    0.900000E-01   1.00800           0   0.00000       0.00000    
     18015 BUTH     186      BUTH     H3       HDA3A    0.900000E-01   1.00800           0   0.00000       0.00000    
     18016 BUTH     186      BUTH     H4       HDA2A    0.900000E-01   1.00800           0   0.00000       0.00000    
     18017 BUTH     186      BUTH     H5       HDA2A    0.900000E-01   1.00800           0   0.00000       0.00000    
     18018 BUTH     186      BUTH     H6       HDA2A    0.900000E-01   1.00800           0   0.00000       0.00000    
     18019 BUTH     186      BUTH     H7       HDA2A    0.900000E-01   1.00800           0   0.00000       0.00000    
     18020 BUTH     186      BUTH     H8       HDP1A    0.430000       1.00800           0   0.00000       0.00000    
     18021 BUTH     186      BUTH     H9       DUMH      0.00000       1.00800           0   0.00000       0.00000    
     18022 BUTH     186      BUTH     LPO11    LPDO1   -0.287000       0.00000          -1   0.00000       0.00000    
     18023 BUTH     186      BUTH     LPO12    LPDO1   -0.288000       0.00000          -1   0.00000       0.00000    
     18024 BUTH     186      BUTH     LPO21    LPD     -0.302000       0.00000          -1   0.00000       0.00000    
     18025 BUTH     186      BUTH     LPO22    LPD     -0.303000       0.00000          -1   0.00000       0.00000    
     18026 BUTH     187      BUTH     C1       CD33A     2.05990       11.6110           0  -1.81190       1.18670    
     18027 BUTH     187      BUTH     DC1      DRUD     -2.33590      0.400000           0   0.00000       0.00000    
     18028 BUTH     187      BUTH     C2       CD32A     2.02070       11.6110           0  -1.59660       1.16930    
     18029 BUTH     187      BUTH     DC2      DRUD     -2.19270      0.400000           0   0.00000       0.00000    
     18030 BUTH     187      BUTH     C3       CD32A     1.98270       11.6110           0  -1.59660       1.16930    
     18031 BUTH     187      BUTH     DC3      DRUD     -2.19270      0.400000           0   0.00000       0.00000    
     18032 BUTH     187      BUTH     C4       CD2O3A    2.72690       11.6110           0  -1.26130       1.05430    
     18033 BUTH     187      BUTH     DC4      DRUD     -1.94890      0.400000           0   0.00000       0.00000    
     18034 BUTH     187      BUTH     O1       OD2C1A    1.46540       15.5994           0 -0.713100      0.569800    
     18035 BUTH     187      BUTH     DO1      DRUD     -1.46540      0.400000           0   0.00000       0.00000    
     18036 BUTH     187      BUTH     O2       OD31A     1.58240       15.5990           0 -0.831500      0.749400    
     18037 BUTH     187      BUTH     DO2      DRUD     -1.58240      0.400000           0   0.00000       0.00000    
     18038 BUTH     187      BUTH     H1       HDA3A    0.900000E-01   1.00800           0   0.00000       0.00000    
     18039 BUTH     187      BUTH     H2       HDA3A    0.900000E-01   1.00800           0   0.00000       0.00000    
     18040 BUTH     187      BUTH     H3       HDA3A    0.900000E-01   1.00800           0   0.00000       0.00000    
     18041 BUTH     187      BUTH     H4       HDA2A    0.900000E-01   1.00800           0   0.00000       0.00000    
     18042 BUTH     187      BUTH     H5       HDA2A    0.900000E-01   1.00800           0   0.00000       0.00000    
     18043 BUTH     187      BUTH     H6       HDA2A    0.900000E-01   1.00800           0   0.00000       0.00000    
     18044 BUTH     187      BUTH     H7       HDA2A    0.900000E-01   1.00800           0   0.00000       0.00000    
     18045 BUTH     187      BUTH     H8       HDP1A    0.430000       1.00800           0   0.00000       0.00000    
     18046 BUTH     187      BUTH     H9       DUMH      0.00000       1.00800           0   0.00000       0.00000    
     18047 BUTH     187      BUTH     LPO11    LPDO1   -0.287000       0.00000          -1   0.00000       0.00000    
     18048 BUTH     187      BUTH     LPO12    LPDO1   -0.288000       0.00000          -1   0.00000       0.00000    
     18049 BUTH     187      BUTH     LPO21    LPD     -0.302000       0.00000          -1   0.00000       0.00000    
     18050 BUTH     187      BUTH     LPO22    LPD     -0.303000       0.00000          -1   0.00000       0.00000    
     18051 BUTH     188      BUTH     C1       CD33A     2.05990       11.6110           0  -1.81190       1.18670    
     18052 BUTH     188      BUTH     DC1      DRUD     -2.33590      0.400000           0   0.00000       0.00000    
     18053 BUTH     188      BUTH     C2       CD32A     2.02070       11.6110           0  -1.59660       1.16930    
     18054 BUTH     188      BUTH     DC2      DRUD     -2.19270      0.400000           0   0.00000       0.00000    
     18055 BUTH     188      BUTH     C3       CD32A     1.98270       11.6110           0  -1.59660       1.16930    
     18056 BUTH     188      BUTH     DC3      DRUD     -2.19270      0.400000           0   0.00000       0.00000    
     18057 BUTH     188      BUTH     C4       CD2O3A    2.72690       11.6110           0  -1.26130       1.05430    
     18058 BUTH     188      BUTH     DC4      DRUD     -1.94890      0.400000           0   0.00000       0.00000    
     18059 BUTH     188      BUTH     O1       OD2C1A    1.46540       15.5994           0 -0.713100      0.569800    
     18060 BUTH     188      BUTH     DO1      DRUD     -1.46540      0.400000           0   0.00000       0.00000    
     18061 BUTH     188      BUTH     O2       OD31A     1.58240       15.5990           0 -0.831500      0.749400    
     18062 BUTH     188      BUTH     DO2      DRUD     -1.58240      0.400000           0   0.00000       0.00000    
     18063 BUTH     188      BUTH     H1       HDA3A    0.900000E-01   1.00800           0   0.00000       0.00000    
     18064 BUTH     188      BUTH     H2       HDA3A    0.900000E-01   1.00800           0   0.00000       0.00000    
     18065 BUTH     188      BUTH     H3       HDA3A    0.900000E-01   1.00800           0   0.00000       0.00000    
     18066 BUTH     188      BUTH     H4       HDA2A    0.900000E-01   1.00800           0   0.00000       0.00000    
     18067 BUTH     188      BUTH     H5       HDA2A    0.900000E-01   1.00800           0   0.00000       0.00000    
     18068 BUTH     188      BUTH     H6       HDA2A    0.900000E-01   1.00800           0   0.00000       0.00000    
     18069 BUTH     188      BUTH     H7       HDA2A    0.900000E-01   1.00800           0   0.00000       0.00000    
     18070 BUTH     188      BUTH     H8       HDP1A    0.430000       1.00800           0   0.00000       0.00000    
     18071 BUTH     188      BUTH     H9       DUMH      0.00000       1.00800           0   0.00000       0.00000    
     18072 BUTH     188      BUTH     LPO11    LPDO1   -0.287000       0.00000          -1   0.00000       0.00000    
     18073 BUTH     188      BUTH     LPO12    LPDO1   -0.288000       0.00000          -1   0.00000       0.00000    
     18074 BUTH     188      BUTH     LPO21    LPD     -0.302000       0.00000          -1   0.00000       0.00000    
     18075 BUTH     188      BUTH     LPO22    LPD     -0.303000       0.00000          -1   0.00000       0.00000    
     18076 BUTH     189      BUTH     C1       CD33A     2.05990       11.6110           0  -1.81190       1.18670    
     18077 BUTH     189      BUTH     DC1      DRUD     -2.33590      0.400000           0   0.00000       0.00000    
     18078 BUTH     189      BUTH     C2       CD32A     2.02070       11.6110           0  -1.59660       1.16930    
     18079 BUTH     189      BUTH     DC2      DRUD     -2.19270      0.400000           0   0.00000       0.00000    
     18080 BUTH     189      BUTH     C3       CD32A     1.98270       11.6110           0  -1.59660       1.16930    
     18081 BUTH     189      BUTH     DC3      DRUD     -2.19270      0.400000           0   0.00000       0.00000    
     18082 BUTH     189      BUTH     C4       CD2O3A    2.72690       11.6110           0  -1.26130       1.05430    
     18083 BUTH     189      BUTH     DC4      DRUD     -1.94890      0.400000           0   0.00000       0.00000    
     18084 BUTH     189      BUTH     O1       OD2C1A    1.46540       15.5994           0 -0.713100      0.569800    
     18085 BUTH     189      BUTH     DO1      DRUD     -1.46540      0.400000           0   0.00000       0.00000    
     18086 BUTH     189      BUTH     O2       OD31A     1.58240       15.5990           0 -0.831500      0.749400    
     18087 BUTH     189      BUTH     DO2      DRUD     -1.58240      0.400000           0   0.00000       0.00000    
     18088 BUTH     189      BUTH     H1       HDA3A    0.900000E-01   1.00800           0   0.00000       0.00000    
     18089 BUTH     189      BUTH     H2       HDA3A    0.900000E-01   1.00800           0   0.00000       0.00000    
     18090 BUTH     189      BUTH     H3       HDA3A    0.900000E-01   1.00800           0   0.00000       0.00000    
     18091 BUTH     189      BUTH     H4       HDA2A    0.900000E-01   1.00800           0   0.00000       0.00000    
     18092 BUTH     189      BUTH     H5       HDA2A    0.900000E-01   1.00800           0   0.00000       0.00000    
     18093 BUTH     189      BUTH     H6       HDA2A    0.900000E-01   1.00800           0   0.00000       0.00000    
     18094 BUTH     189      BUTH     H7       HDA2A    0.900000E-01   1.00800           0   0.00000       0.00000    
     18095 BUTH     189      BUTH     H8       HDP1A    0.430000       1.00800           0   0.00000       0.00000    
     18096 BUTH     189      BUTH     H9       DUMH      0.00000       1.00800           0   0.00000       0.00000    
     18097 BUTH     189      BUTH     LPO11    LPDO1   -0.287000       0.00000          -1   0.00000       0.00000    
     18098 BUTH     189      BUTH     LPO12    LPDO1   -0.288000       0.00000          -1   0.00000       0.00000    
     18099 BUTH     189      BUTH     LPO21    LPD     -0.302000       0.00000          -1   0.00000       0.00000    
     18100 BUTH     189      BUTH     LPO22    LPD     -0.303000       0.00000          -1   0.00000       0.00000    
     18101 BUTH     190      BUTH     C1       CD33A     2.05990       11.6110           0  -1.81190       1.18670    
     18102 BUTH     190      BUTH     DC1      DRUD     -2.33590      0.400000           0   0.00000       0.00000    
     18103 BUTH     190      BUTH     C2       CD32A     2.02070       11.6110           0  -1.59660       1.16930    
     18104 BUTH     190      BUTH     DC2      DRUD     -2.19270      0.400000           0   0.00000       0.00000    
     18105 BUTH     190      BUTH     C3       CD32A     1.98270       11.6110           0  -1.59660       1.16930    
     18106 BUTH     190      BUTH     DC3      DRUD     -2.19270      0.400000           0   0.00000       0.00000    
     18107 BUTH     190      BUTH     C4       CD2O3A    2.72690       11.6110           0  -1.26130       1.05430    
     18108 BUTH     190      BUTH     DC4      DRUD     -1.94890      0.400000           0   0.00000       0.00000    
     18109 BUTH     190      BUTH     O1       OD2C1A    1.46540       15.5994           0 -0.713100      0.569800    
     18110 BUTH     190      BUTH     DO1      DRUD     -1.46540      0.400000           0   0.00000       0.00000    
     18111 BUTH     190      BUTH     O2       OD31A     1.58240       15.5990           0 -0.831500      0.749400    
     18112 BUTH     190      BUTH     DO2      DRUD     -1.58240      0.400000           0   0.00000       0.00000    
     18113 BUTH     190      BUTH     H1       HDA3A    0.900000E-01   1.00800           0   0.00000       0.00000    
     18114 BUTH     190      BUTH     H2       HDA3A    0.900000E-01   1.00800           0   0.00000       0.00000    
     18115 BUTH     190      BUTH     H3       HDA3A    0.900000E-01   1.00800           0   0.00000       0.00000    
     18116 BUTH     190      BUTH     H4       HDA2A    0.900000E-01   1.00800           0   0.00000       0.00000    
     18117 BUTH     190      BUTH     H5       HDA2A    0.900000E-01   1.00800           0   0.00000       0.00000    
     18118 BUTH     190      BUTH     H6       HDA2A    0.900000E-01   1.00800           0   0.00000       0.00000    
     18119 BUTH     190      BUTH     H7       HDA2A    0.900000E-01   1.00800           0   0.00000       0.00000    
     18120 BUTH     190      BUTH     H8       HDP1A    0.430000       1.00800           0   0.00000       0.00000    
     18121 BUTH     190      BUTH     H9       DUMH      0.00000       1.00800           0   0.00000       0.00000    
     18122 BUTH     190      BUTH     LPO11    LPDO1   -0.287000       0.00000          -1   0.00000       0.00000    
     18123 BUTH     190      BUTH     LPO12    LPDO1   -0.288000       0.00000          -1   0.00000       0.00000    
     18124 BUTH     190      BUTH     LPO21    LPD     -0.302000       0.00000          -1   0.00000       0.00000    
     18125 BUTH     190      BUTH     LPO22    LPD     -0.303000       0.00000          -1   0.00000       0.00000    
     18126 BUTH     191      BUTH     C1       CD33A     2.05990       11.6110           0  -1.81190       1.18670    
     18127 BUTH     191      BUTH     DC1      DRUD     -2.33590      0.400000           0   0.00000       0.00000    
     18128 BUTH     191      BUTH     C2       CD32A     2.02070       11.6110           0  -1.59660       1.16930    
     18129 BUTH     191      BUTH     DC2      DRUD     -2.19270      0.400000           0   0.00000       0.00000    
     18130 BUTH     191      BUTH     C3       CD32A     1.98270       11.6110           0  -1.59660       1.16930    
     18131 BUTH     191      BUTH     DC3      DRUD     -2.19270      0.400000           0   0.00000       0.00000    
     18132 BUTH     191      BUTH     C4       CD2O3A    2.72690       11.6110           0  -1.26130       1.05430    
     18133 BUTH     191      BUTH     DC4      DRUD     -1.94890      0.400000           0   0.00000       0.00000    
     18134 BUTH     191      BUTH     O1       OD2C1A    1.46540       15.5994           0 -0.713100      0.569800    
     18135 BUTH     191      BUTH     DO1      DRUD     -1.46540      0.400000           0   0.00000       0.00000    
     18136 BUTH     191      BUTH     O2       OD31A     1.58240       15.5990           0 -0.831500      0.749400    
     18137 BUTH     191      BUTH     DO2      DRUD     -1.58240      0.400000           0   0.00000       0.00000    
     18138 BUTH     191      BUTH     H1       HDA3A    0.900000E-01   1.00800           0   0.00000       0.00000    
     18139 BUTH     191      BUTH     H2       HDA3A    0.900000E-01   1.00800           0   0.00000       0.00000    
     18140 BUTH     191      BUTH     H3       HDA3A    0.900000E-01   1.00800           0   0.00000       0.00000    
     18141 BUTH     191      BUTH     H4       HDA2A    0.900000E-01   1.00800           0   0.00000       0.00000    
     18142 BUTH     191      BUTH     H5       HDA2A    0.900000E-01   1.00800           0   0.00000       0.00000    
     18143 BUTH     191      BUTH     H6       HDA2A    0.900000E-01   1.00800           0   0.00000       0.00000    
     18144 BUTH     191      BUTH     H7       HDA2A    0.900000E-01   1.00800           0   0.00000       0.00000    
     18145 BUTH     191      BUTH     H8       HDP1A    0.430000       1.00800           0   0.00000       0.00000    
     18146 BUTH     191      BUTH     H9       DUMH      0.00000       1.00800           0   0.00000       0.00000    
     18147 BUTH     191      BUTH     LPO11    LPDO1   -0.287000       0.00000          -1   0.00000       0.00000    
     18148 BUTH     191      BUTH     LPO12    LPDO1   -0.288000       0.00000          -1   0.00000       0.00000    
     18149 BUTH     191      BUTH     LPO21    LPD     -0.302000       0.00000          -1   0.00000       0.00000    
     18150 BUTH     191      BUTH     LPO22    LPD     -0.303000       0.00000          -1   0.00000       0.00000    
     18151 BUTH     192      BUTH     C1       CD33A     2.05990       11.6110           0  -1.81190       1.18670    
     18152 BUTH     192      BUTH     DC1      DRUD     -2.33590      0.400000           0   0.00000       0.00000    
     18153 BUTH     192      BUTH     C2       CD32A     2.02070       11.6110           0  -1.59660       1.16930    
     18154 BUTH     192      BUTH     DC2      DRUD     -2.19270      0.400000           0   0.00000       0.00000    
     18155 BUTH     192      BUTH     C3       CD32A     1.98270       11.6110           0  -1.59660       1.16930    
     18156 BUTH     192      BUTH     DC3      DRUD     -2.19270      0.400000           0   0.00000       0.00000    
     18157 BUTH     192      BUTH     C4       CD2O3A    2.72690       11.6110           0  -1.26130       1.05430    
     18158 BUTH     192      BUTH     DC4      DRUD     -1.94890      0.400000           0   0.00000       0.00000    
     18159 BUTH     192      BUTH     O1       OD2C1A    1.46540       15.5994           0 -0.713100      0.569800    
     18160 BUTH     192      BUTH     DO1      DRUD     -1.46540      0.400000           0   0.00000       0.00000    
     18161 BUTH     192      BUTH     O2       OD31A     1.58240       15.5990           0 -0.831500      0.749400    
     18162 BUTH     192      BUTH     DO2      DRUD     -1.58240      0.400000           0   0.00000       0.00000    
     18163 BUTH     192      BUTH     H1       HDA3A    0.900000E-01   1.00800           0   0.00000       0.00000    
     18164 BUTH     192      BUTH     H2       HDA3A    0.900000E-01   1.00800           0   0.00000       0.00000    
     18165 BUTH     192      BUTH     H3       HDA3A    0.900000E-01   1.00800           0   0.00000       0.00000    
     18166 BUTH     192      BUTH     H4       HDA2A    0.900000E-01   1.00800           0   0.00000       0.00000    
     18167 BUTH     192      BUTH     H5       HDA2A    0.900000E-01   1.00800           0   0.00000       0.00000    
     18168 BUTH     192      BUTH     H6       HDA2A    0.900000E-01   1.00800           0   0.00000       0.00000    
     18169 BUTH     192      BUTH     H7       HDA2A    0.900000E-01   1.00800           0   0.00000       0.00000    
     18170 BUTH     192      BUTH     H8       HDP1A    0.430000       1.00800           0   0.00000       0.00000    
     18171 BUTH     192      BUTH     H9       DUMH      0.00000       1.00800           0   0.00000       0.00000    
     18172 BUTH     192      BUTH     LPO11    LPDO1   -0.287000       0.00000          -1   0.00000       0.00000    
     18173 BUTH     192      BUTH     LPO12    LPDO1   -0.288000       0.00000          -1   0.00000       0.00000    
     18174 BUTH     192      BUTH     LPO21    LPD     -0.302000       0.00000          -1   0.00000       0.00000    
     18175 BUTH     192      BUTH     LPO22    LPD     -0.303000       0.00000          -1   0.00000       0.00000    
     18176 BUTH     193      BUTH     C1       CD33A     2.05990       11.6110           0  -1.81190       1.18670    
     18177 BUTH     193      BUTH     DC1      DRUD     -2.33590      0.400000           0   0.00000       0.00000    
     18178 BUTH     193      BUTH     C2       CD32A     2.02070       11.6110           0  -1.59660       1.16930    
     18179 BUTH     193      BUTH     DC2      DRUD     -2.19270      0.400000           0   0.00000       0.00000    
     18180 BUTH     193      BUTH     C3       CD32A     1.98270       11.6110           0  -1.59660       1.16930    
     18181 BUTH     193      BUTH     DC3      DRUD     -2.19270      0.400000           0   0.00000       0.00000    
     18182 BUTH     193      BUTH     C4       CD2O3A    2.72690       11.6110           0  -1.26130       1.05430    
     18183 BUTH     193      BUTH     DC4      DRUD     -1.94890      0.400000           0   0.00000       0.00000    
     18184 BUTH     193      BUTH     O1       OD2C1A    1.46540       15.5994           0 -0.713100      0.569800    
     18185 BUTH     193      BUTH     DO1      DRUD     -1.46540      0.400000           0   0.00000       0.00000    
     18186 BUTH     193      BUTH     O2       OD31A     1.58240       15.5990           0 -0.831500      0.749400    
     18187 BUTH     193      BUTH     DO2      DRUD     -1.58240      0.400000           0   0.00000       0.00000    
     18188 BUTH     193      BUTH     H1       HDA3A    0.900000E-01   1.00800           0   0.00000       0.00000    
     18189 BUTH     193      BUTH     H2       HDA3A    0.900000E-01   1.00800           0   0.00000       0.00000    
     18190 BUTH     193      BUTH     H3       HDA3A    0.900000E-01   1.00800           0   0.00000       0.00000    
     18191 BUTH     193      BUTH     H4       HDA2A    0.900000E-01   1.00800           0   0.00000       0.00000    
     18192 BUTH     193      BUTH     H5       HDA2A    0.900000E-01   1.00800           0   0.00000       0.00000    
     18193 BUTH     193      BUTH     H6       HDA2A    0.900000E-01   1.00800           0   0.00000       0.00000    
     18194 BUTH     193      BUTH     H7       HDA2A    0.900000E-01   1.00800           0   0.00000       0.00000    
     18195 BUTH     193      BUTH     H8       HDP1A    0.430000       1.00800           0   0.00000       0.00000    
     18196 BUTH     193      BUTH     H9       DUMH      0.00000       1.00800           0   0.00000       0.00000    
     18197 BUTH     193      BUTH     LPO11    LPDO1   -0.287000       0.00000          -1   0.00000       0.00000    
     18198 BUTH     193      BUTH     LPO12    LPDO1   -0.288000       0.00000          -1   0.00000       0.00000    
     18199 BUTH     193      BUTH     LPO21    LPD     -0.302000       0.00000          -1   0.00000       0.00000    
     18200 BUTH     193      BUTH     LPO22    LPD     -0.303000       0.00000          -1   0.00000       0.00000    
     18201 BUTH     194      BUTH     C1       CD33A     2.05990       11.6110           0  -1.81190       1.18670    
     18202 BUTH     194      BUTH     DC1      DRUD     -2.33590      0.400000           0   0.00000       0.00000    
     18203 BUTH     194      BUTH     C2       CD32A     2.02070       11.6110           0  -1.59660       1.16930    
     18204 BUTH     194      BUTH     DC2      DRUD     -2.19270      0.400000           0   0.00000       0.00000    
     18205 BUTH     194      BUTH     C3       CD32A     1.98270       11.6110           0  -1.59660       1.16930    
     18206 BUTH     194      BUTH     DC3      DRUD     -2.19270      0.400000           0   0.00000       0.00000    
     18207 BUTH     194      BUTH     C4       CD2O3A    2.72690       11.6110           0  -1.26130       1.05430    
     18208 BUTH     194      BUTH     DC4      DRUD     -1.94890      0.400000           0   0.00000       0.00000    
     18209 BUTH     194      BUTH     O1       OD2C1A    1.46540       15.5994           0 -0.713100      0.569800    
     18210 BUTH     194      BUTH     DO1      DRUD     -1.46540      0.400000           0   0.00000       0.00000    
     18211 BUTH     194      BUTH     O2       OD31A     1.58240       15.5990           0 -0.831500      0.749400    
     18212 BUTH     194      BUTH     DO2      DRUD     -1.58240      0.400000           0   0.00000       0.00000    
     18213 BUTH     194      BUTH     H1       HDA3A    0.900000E-01   1.00800           0   0.00000       0.00000    
     18214 BUTH     194      BUTH     H2       HDA3A    0.900000E-01   1.00800           0   0.00000       0.00000    
     18215 BUTH     194      BUTH     H3       HDA3A    0.900000E-01   1.00800           0   0.00000       0.00000    
     18216 BUTH     194      BUTH     H4       HDA2A    0.900000E-01   1.00800           0   0.00000       0.00000    
     18217 BUTH     194      BUTH     H5       HDA2A    0.900000E-01   1.00800           0   0.00000       0.00000    
     18218 BUTH     194      BUTH     H6       HDA2A    0.900000E-01   1.00800           0   0.00000       0.00000    
     18219 BUTH     194      BUTH     H7       HDA2A    0.900000E-01   1.00800           0   0.00000       0.00000    
     18220 BUTH     194      BUTH     H8       HDP1A    0.430000       1.00800           0   0.00000       0.00000    
     18221 BUTH     194      BUTH     H9       DUMH      0.00000       1.00800           0   0.00000       0.00000    
     18222 BUTH     194      BUTH     LPO11    LPDO1   -0.287000       0.00000          -1   0.00000       0.00000    
     18223 BUTH     194      BUTH     LPO12    LPDO1   -0.288000       0.00000          -1   0.00000       0.00000    
     18224 BUTH     194      BUTH     LPO21    LPD     -0.302000       0.00000          -1   0.00000       0.00000    
     18225 BUTH     194      BUTH     LPO22    LPD     -0.303000       0.00000          -1   0.00000       0.00000    
     18226 BUTH     195      BUTH     C1       CD33A     2.05990       11.6110           0  -1.81190       1.18670    
     18227 BUTH     195      BUTH     DC1      DRUD     -2.33590      0.400000           0   0.00000       0.00000    
     18228 BUTH     195      BUTH     C2       CD32A     2.02070       11.6110           0  -1.59660       1.16930    
     18229 BUTH     195      BUTH     DC2      DRUD     -2.19270      0.400000           0   0.00000       0.00000    
     18230 BUTH     195      BUTH     C3       CD32A     1.98270       11.6110           0  -1.59660       1.16930    
     18231 BUTH     195      BUTH     DC3      DRUD     -2.19270      0.400000           0   0.00000       0.00000    
     18232 BUTH     195      BUTH     C4       CD2O3A    2.72690       11.6110           0  -1.26130       1.05430    
     18233 BUTH     195      BUTH     DC4      DRUD     -1.94890      0.400000           0   0.00000       0.00000    
     18234 BUTH     195      BUTH     O1       OD2C1A    1.46540       15.5994           0 -0.713100      0.569800    
     18235 BUTH     195      BUTH     DO1      DRUD     -1.46540      0.400000           0   0.00000       0.00000    
     18236 BUTH     195      BUTH     O2       OD31A     1.58240       15.5990           0 -0.831500      0.749400    
     18237 BUTH     195      BUTH     DO2      DRUD     -1.58240      0.400000           0   0.00000       0.00000    
     18238 BUTH     195      BUTH     H1       HDA3A    0.900000E-01   1.00800           0   0.00000       0.00000    
     18239 BUTH     195      BUTH     H2       HDA3A    0.900000E-01   1.00800           0   0.00000       0.00000    
     18240 BUTH     195      BUTH     H3       HDA3A    0.900000E-01   1.00800           0   0.00000       0.00000    
     18241 BUTH     195      BUTH     H4       HDA2A    0.900000E-01   1.00800           0   0.00000       0.00000    
     18242 BUTH     195      BUTH     H5       HDA2A    0.900000E-01   1.00800           0   0.00000       0.00000    
     18243 BUTH     195      BUTH     H6       HDA2A    0.900000E-01   1.00800           0   0.00000       0.00000    
     18244 BUTH     195      BUTH     H7       HDA2A    0.900000E-01   1.00800           0   0.00000       0.00000    
     18245 BUTH     195      BUTH     H8       HDP1A    0.430000       1.00800           0   0.00000       0.00000    
     18246 BUTH     195      BUTH     H9       DUMH      0.00000       1.00800           0   0.00000       0.00000    
     18247 BUTH     195      BUTH     LPO11    LPDO1   -0.287000       0.00000          -1   0.00000       0.00000    
     18248 BUTH     195      BUTH     LPO12    LPDO1   -0.288000       0.00000          -1   0.00000       0.00000    
     18249 BUTH     195      BUTH     LPO21    LPD     -0.302000       0.00000          -1   0.00000       0.00000    
     18250 BUTH     195      BUTH     LPO22    LPD     -0.303000       0.00000          -1   0.00000       0.00000    
     18251 BUTH     196      BUTH     C1       CD33A     2.05990       11.6110           0  -1.81190       1.18670    
     18252 BUTH     196      BUTH     DC1      DRUD     -2.33590      0.400000           0   0.00000       0.00000    
     18253 BUTH     196      BUTH     C2       CD32A     2.02070       11.6110           0  -1.59660       1.16930    
     18254 BUTH     196      BUTH     DC2      DRUD     -2.19270      0.400000           0   0.00000       0.00000    
     18255 BUTH     196      BUTH     C3       CD32A     1.98270       11.6110           0  -1.59660       1.16930    
     18256 BUTH     196      BUTH     DC3      DRUD     -2.19270      0.400000           0   0.00000       0.00000    
     18257 BUTH     196      BUTH     C4       CD2O3A    2.72690       11.6110           0  -1.26130       1.05430    
     18258 BUTH     196      BUTH     DC4      DRUD     -1.94890      0.400000           0   0.00000       0.00000    
     18259 BUTH     196      BUTH     O1       OD2C1A    1.46540       15.5994           0 -0.713100      0.569800    
     18260 BUTH     196      BUTH     DO1      DRUD     -1.46540      0.400000           0   0.00000       0.00000    
     18261 BUTH     196      BUTH     O2       OD31A     1.58240       15.5990           0 -0.831500      0.749400    
     18262 BUTH     196      BUTH     DO2      DRUD     -1.58240      0.400000           0   0.00000       0.00000    
     18263 BUTH     196      BUTH     H1       HDA3A    0.900000E-01   1.00800           0   0.00000       0.00000    
     18264 BUTH     196      BUTH     H2       HDA3A    0.900000E-01   1.00800           0   0.00000       0.00000    
     18265 BUTH     196      BUTH     H3       HDA3A    0.900000E-01   1.00800           0   0.00000       0.00000    
     18266 BUTH     196      BUTH     H4       HDA2A    0.900000E-01   1.00800           0   0.00000       0.00000    
     18267 BUTH     196      BUTH     H5       HDA2A    0.900000E-01   1.00800           0   0.00000       0.00000    
     18268 BUTH     196      BUTH     H6       HDA2A    0.900000E-01   1.00800           0   0.00000       0.00000    
     18269 BUTH     196      BUTH     H7       HDA2A    0.900000E-01   1.00800           0   0.00000       0.00000    
     18270 BUTH     196      BUTH     H8       HDP1A    0.430000       1.00800           0   0.00000       0.00000    
     18271 BUTH     196      BUTH     H9       DUMH      0.00000       1.00800           0   0.00000       0.00000    
     18272 BUTH     196      BUTH     LPO11    LPDO1   -0.287000       0.00000          -1   0.00000       0.00000    
     18273 BUTH     196      BUTH     LPO12    LPDO1   -0.288000       0.00000          -1   0.00000       0.00000    
     18274 BUTH     196      BUTH     LPO21    LPD     -0.302000       0.00000          -1   0.00000       0.00000    
     18275 BUTH     196      BUTH     LPO22    LPD     -0.303000       0.00000          -1   0.00000       0.00000    
     18276 BUTH     197      BUTH     C1       CD33A     2.05990       11.6110           0  -1.81190       1.18670    
     18277 BUTH     197      BUTH     DC1      DRUD     -2.33590      0.400000           0   0.00000       0.00000    
     18278 BUTH     197      BUTH     C2       CD32A     2.02070       11.6110           0  -1.59660       1.16930    
     18279 BUTH     197      BUTH     DC2      DRUD     -2.19270      0.400000           0   0.00000       0.00000    
     18280 BUTH     197      BUTH     C3       CD32A     1.98270       11.6110           0  -1.59660       1.16930    
     18281 BUTH     197      BUTH     DC3      DRUD     -2.19270      0.400000           0   0.00000       0.00000    
     18282 BUTH     197      BUTH     C4       CD2O3A    2.72690       11.6110           0  -1.26130       1.05430    
     18283 BUTH     197      BUTH     DC4      DRUD     -1.94890      0.400000           0   0.00000       0.00000    
     18284 BUTH     197      BUTH     O1       OD2C1A    1.46540       15.5994           0 -0.713100      0.569800    
     18285 BUTH     197      BUTH     DO1      DRUD     -1.46540      0.400000           0   0.00000       0.00000    
     18286 BUTH     197      BUTH     O2       OD31A     1.58240       15.5990           0 -0.831500      0.749400    
     18287 BUTH     197      BUTH     DO2      DRUD     -1.58240      0.400000           0   0.00000       0.00000    
     18288 BUTH     197      BUTH     H1       HDA3A    0.900000E-01   1.00800           0   0.00000       0.00000    
     18289 BUTH     197      BUTH     H2       HDA3A    0.900000E-01   1.00800           0   0.00000       0.00000    
     18290 BUTH     197      BUTH     H3       HDA3A    0.900000E-01   1.00800           0   0.00000       0.00000    
     18291 BUTH     197      BUTH     H4       HDA2A    0.900000E-01   1.00800           0   0.00000       0.00000    
     18292 BUTH     197      BUTH     H5       HDA2A    0.900000E-01   1.00800           0   0.00000       0.00000    
     18293 BUTH     197      BUTH     H6       HDA2A    0.900000E-01   1.00800           0   0.00000       0.00000    
     18294 BUTH     197      BUTH     H7       HDA2A    0.900000E-01   1.00800           0   0.00000       0.00000    
     18295 BUTH     197      BUTH     H8       HDP1A    0.430000       1.00800           0   0.00000       0.00000    
     18296 BUTH     197      BUTH     H9       DUMH      0.00000       1.00800           0   0.00000       0.00000    
     18297 BUTH     197      BUTH     LPO11    LPDO1   -0.287000       0.00000          -1   0.00000       0.00000    
     18298 BUTH     197      BUTH     LPO12    LPDO1   -0.288000       0.00000          -1   0.00000       0.00000    
     18299 BUTH     197      BUTH     LPO21    LPD     -0.302000       0.00000          -1   0.00000       0.00000    
     18300 BUTH     197      BUTH     LPO22    LPD     -0.303000       0.00000          -1   0.00000       0.00000    
     18301 BUTH     198      BUTH     C1       CD33A     2.05990       11.6110           0  -1.81190       1.18670    
     18302 BUTH     198      BUTH     DC1      DRUD     -2.33590      0.400000           0   0.00000       0.00000    
     18303 BUTH     198      BUTH     C2       CD32A     2.02070       11.6110           0  -1.59660       1.16930    
     18304 BUTH     198      BUTH     DC2      DRUD     -2.19270      0.400000           0   0.00000       0.00000    
     18305 BUTH     198      BUTH     C3       CD32A     1.98270       11.6110           0  -1.59660       1.16930    
     18306 BUTH     198      BUTH     DC3      DRUD     -2.19270      0.400000           0   0.00000       0.00000    
     18307 BUTH     198      BUTH     C4       CD2O3A    2.72690       11.6110           0  -1.26130       1.05430    
     18308 BUTH     198      BUTH     DC4      DRUD     -1.94890      0.400000           0   0.00000       0.00000    
     18309 BUTH     198      BUTH     O1       OD2C1A    1.46540       15.5994           0 -0.713100      0.569800    
     18310 BUTH     198      BUTH     DO1      DRUD     -1.46540      0.400000           0   0.00000       0.00000    
     18311 BUTH     198      BUTH     O2       OD31A     1.58240       15.5990           0 -0.831500      0.749400    
     18312 BUTH     198      BUTH     DO2      DRUD     -1.58240      0.400000           0   0.00000       0.00000    
     18313 BUTH     198      BUTH     H1       HDA3A    0.900000E-01   1.00800           0   0.00000       0.00000    
     18314 BUTH     198      BUTH     H2       HDA3A    0.900000E-01   1.00800           0   0.00000       0.00000    
     18315 BUTH     198      BUTH     H3       HDA3A    0.900000E-01   1.00800           0   0.00000       0.00000    
     18316 BUTH     198      BUTH     H4       HDA2A    0.900000E-01   1.00800           0   0.00000       0.00000    
     18317 BUTH     198      BUTH     H5       HDA2A    0.900000E-01   1.00800           0   0.00000       0.00000    
     18318 BUTH     198      BUTH     H6       HDA2A    0.900000E-01   1.00800           0   0.00000       0.00000    
     18319 BUTH     198      BUTH     H7       HDA2A    0.900000E-01   1.00800           0   0.00000       0.00000    
     18320 BUTH     198      BUTH     H8       HDP1A    0.430000       1.00800           0   0.00000       0.00000    
     18321 BUTH     198      BUTH     H9       DUMH      0.00000       1.00800           0   0.00000       0.00000    
     18322 BUTH     198      BUTH     LPO11    LPDO1   -0.287000       0.00000          -1   0.00000       0.00000    
     18323 BUTH     198      BUTH     LPO12    LPDO1   -0.288000       0.00000          -1   0.00000       0.00000    
     18324 BUTH     198      BUTH     LPO21    LPD     -0.302000       0.00000          -1   0.00000       0.00000    
     18325 BUTH     198      BUTH     LPO22    LPD     -0.303000       0.00000          -1   0.00000       0.00000    
     18326 BUTH     199      BUTH     C1       CD33A     2.05990       11.6110           0  -1.81190       1.18670    
     18327 BUTH     199      BUTH     DC1      DRUD     -2.33590      0.400000           0   0.00000       0.00000    
     18328 BUTH     199      BUTH     C2       CD32A     2.02070       11.6110           0  -1.59660       1.16930    
     18329 BUTH     199      BUTH     DC2      DRUD     -2.19270      0.400000           0   0.00000       0.00000    
     18330 BUTH     199      BUTH     C3       CD32A     1.98270       11.6110           0  -1.59660       1.16930    
     18331 BUTH     199      BUTH     DC3      DRUD     -2.19270      0.400000           0   0.00000       0.00000    
     18332 BUTH     199      BUTH     C4       CD2O3A    2.72690       11.6110           0  -1.26130       1.05430    
     18333 BUTH     199      BUTH     DC4      DRUD     -1.94890      0.400000           0   0.00000       0.00000    
     18334 BUTH     199      BUTH     O1       OD2C1A    1.46540       15.5994           0 -0.713100      0.569800    
     18335 BUTH     199      BUTH     DO1      DRUD     -1.46540      0.400000           0   0.00000       0.00000    
     18336 BUTH     199      BUTH     O2       OD31A     1.58240       15.5990           0 -0.831500      0.749400    
     18337 BUTH     199      BUTH     DO2      DRUD     -1.58240      0.400000           0   0.00000       0.00000    
     18338 BUTH     199      BUTH     H1       HDA3A    0.900000E-01   1.00800           0   0.00000       0.00000    
     18339 BUTH     199      BUTH     H2       HDA3A    0.900000E-01   1.00800           0   0.00000       0.00000    
     18340 BUTH     199      BUTH     H3       HDA3A    0.900000E-01   1.00800           0   0.00000       0.00000    
     18341 BUTH     199      BUTH     H4       HDA2A    0.900000E-01   1.00800           0   0.00000       0.00000    
     18342 BUTH     199      BUTH     H5       HDA2A    0.900000E-01   1.00800           0   0.00000       0.00000    
     18343 BUTH     199      BUTH     H6       HDA2A    0.900000E-01   1.00800           0   0.00000       0.00000    
     18344 BUTH     199      BUTH     H7       HDA2A    0.900000E-01   1.00800           0   0.00000       0.00000    
     18345 BUTH     199      BUTH     H8       HDP1A    0.430000       1.00800           0   0.00000       0.00000    
     18346 BUTH     199      BUTH     H9       DUMH      0.00000       1.00800           0   0.00000       0.00000    
     18347 BUTH     199      BUTH     LPO11    LPDO1   -0.287000       0.00000          -1   0.00000       0.00000    
     18348 BUTH     199      BUTH     LPO12    LPDO1   -0.288000       0.00000          -1   0.00000       0.00000    
     18349 BUTH     199      BUTH     LPO21    LPD     -0.302000       0.00000          -1   0.00000       0.00000    
     18350 BUTH     199      BUTH     LPO22    LPD     -0.303000       0.00000          -1   0.00000       0.00000    
     18351 BUTH     200      BUTH     C1       CD33A     2.05990       11.6110           0  -1.81190       1.18670    
     18352 BUTH     200      BUTH     DC1      DRUD     -2.33590      0.400000           0   0.00000       0.00000    
     18353 BUTH     200      BUTH     C2       CD32A     2.02070       11.6110           0  -1.59660       1.16930    
     18354 BUTH     200      BUTH     DC2      DRUD     -2.19270      0.400000           0   0.00000       0.00000    
     18355 BUTH     200      BUTH     C3       CD32A     1.98270       11.6110           0  -1.59660       1.16930    
     18356 BUTH     200      BUTH     DC3      DRUD     -2.19270      0.400000           0   0.00000       0.00000    
     18357 BUTH     200      BUTH     C4       CD2O3A    2.72690       11.6110           0  -1.26130       1.05430    
     18358 BUTH     200      BUTH     DC4      DRUD     -1.94890      0.400000           0   0.00000       0.00000    
     18359 BUTH     200      BUTH     O1       OD2C1A    1.46540       15.5994           0 -0.713100      0.569800    
     18360 BUTH     200      BUTH     DO1      DRUD     -1.46540      0.400000           0   0.00000       0.00000    
     18361 BUTH     200      BUTH     O2       OD31A     1.58240       15.5990           0 -0.831500      0.749400    
     18362 BUTH     200      BUTH     DO2      DRUD     -1.58240      0.400000           0   0.00000       0.00000    
     18363 BUTH     200      BUTH     H1       HDA3A    0.900000E-01   1.00800           0   0.00000       0.00000    
     18364 BUTH     200      BUTH     H2       HDA3A    0.900000E-01   1.00800           0   0.00000       0.00000    
     18365 BUTH     200      BUTH     H3       HDA3A    0.900000E-01   1.00800           0   0.00000       0.00000    
     18366 BUTH     200      BUTH     H4       HDA2A    0.900000E-01   1.00800           0   0.00000       0.00000    
     18367 BUTH     200      BUTH     H5       HDA2A    0.900000E-01   1.00800           0   0.00000       0.00000    
     18368 BUTH     200      BUTH     H6       HDA2A    0.900000E-01   1.00800           0   0.00000       0.00000    
     18369 BUTH     200      BUTH     H7       HDA2A    0.900000E-01   1.00800           0   0.00000       0.00000    
     18370 BUTH     200      BUTH     H8       HDP1A    0.430000       1.00800           0   0.00000       0.00000    
     18371 BUTH     200      BUTH     H9       DUMH      0.00000       1.00800           0   0.00000       0.00000    
     18372 BUTH     200      BUTH     LPO11    LPDO1   -0.287000       0.00000          -1   0.00000       0.00000    
     18373 BUTH     200      BUTH     LPO12    LPDO1   -0.288000       0.00000          -1   0.00000       0.00000    
     18374 BUTH     200      BUTH     LPO21    LPD     -0.302000       0.00000          -1   0.00000       0.00000    
     18375 BUTH     200      BUTH     LPO22    LPD     -0.303000       0.00000          -1   0.00000       0.00000    
     18376 BUTH     201      BUTH     C1       CD33A     2.05990       11.6110           0  -1.81190       1.18670    
     18377 BUTH     201      BUTH     DC1      DRUD     -2.33590      0.400000           0   0.00000       0.00000    
     18378 BUTH     201      BUTH     C2       CD32A     2.02070       11.6110           0  -1.59660       1.16930    
     18379 BUTH     201      BUTH     DC2      DRUD     -2.19270      0.400000           0   0.00000       0.00000    
     18380 BUTH     201      BUTH     C3       CD32A     1.98270       11.6110           0  -1.59660       1.16930    
     18381 BUTH     201      BUTH     DC3      DRUD     -2.19270      0.400000           0   0.00000       0.00000    
     18382 BUTH     201      BUTH     C4       CD2O3A    2.72690       11.6110           0  -1.26130       1.05430    
     18383 BUTH     201      BUTH     DC4      DRUD     -1.94890      0.400000           0   0.00000       0.00000    
     18384 BUTH     201      BUTH     O1       OD2C1A    1.46540       15.5994           0 -0.713100      0.569800    
     18385 BUTH     201      BUTH     DO1      DRUD     -1.46540      0.400000           0   0.00000       0.00000    
     18386 BUTH     201      BUTH     O2       OD31A     1.58240       15.5990           0 -0.831500      0.749400    
     18387 BUTH     201      BUTH     DO2      DRUD     -1.58240      0.400000           0   0.00000       0.00000    
     18388 BUTH     201      BUTH     H1       HDA3A    0.900000E-01   1.00800           0   0.00000       0.00000    
     18389 BUTH     201      BUTH     H2       HDA3A    0.900000E-01   1.00800           0   0.00000       0.00000    
     18390 BUTH     201      BUTH     H3       HDA3A    0.900000E-01   1.00800           0   0.00000       0.00000    
     18391 BUTH     201      BUTH     H4       HDA2A    0.900000E-01   1.00800           0   0.00000       0.00000    
     18392 BUTH     201      BUTH     H5       HDA2A    0.900000E-01   1.00800           0   0.00000       0.00000    
     18393 BUTH     201      BUTH     H6       HDA2A    0.900000E-01   1.00800           0   0.00000       0.00000    
     18394 BUTH     201      BUTH     H7       HDA2A    0.900000E-01   1.00800           0   0.00000       0.00000    
     18395 BUTH     201      BUTH     H8       HDP1A    0.430000       1.00800           0   0.00000       0.00000    
     18396 BUTH     201      BUTH     H9       DUMH      0.00000       1.00800           0   0.00000       0.00000    
     18397 BUTH     201      BUTH     LPO11    LPDO1   -0.287000       0.00000          -1   0.00000       0.00000    
     18398 BUTH     201      BUTH     LPO12    LPDO1   -0.288000       0.00000          -1   0.00000       0.00000    
     18399 BUTH     201      BUTH     LPO21    LPD     -0.302000       0.00000          -1   0.00000       0.00000    
     18400 BUTH     201      BUTH     LPO22    LPD     -0.303000       0.00000          -1   0.00000       0.00000    
     18401 BUTH     202      BUTH     C1       CD33A     2.05990       11.6110           0  -1.81190       1.18670    
     18402 BUTH     202      BUTH     DC1      DRUD     -2.33590      0.400000           0   0.00000       0.00000    
     18403 BUTH     202      BUTH     C2       CD32A     2.02070       11.6110           0  -1.59660       1.16930    
     18404 BUTH     202      BUTH     DC2      DRUD     -2.19270      0.400000           0   0.00000       0.00000    
     18405 BUTH     202      BUTH     C3       CD32A     1.98270       11.6110           0  -1.59660       1.16930    
     18406 BUTH     202      BUTH     DC3      DRUD     -2.19270      0.400000           0   0.00000       0.00000    
     18407 BUTH     202      BUTH     C4       CD2O3A    2.72690       11.6110           0  -1.26130       1.05430    
     18408 BUTH     202      BUTH     DC4      DRUD     -1.94890      0.400000           0   0.00000       0.00000    
     18409 BUTH     202      BUTH     O1       OD2C1A    1.46540       15.5994           0 -0.713100      0.569800    
     18410 BUTH     202      BUTH     DO1      DRUD     -1.46540      0.400000           0   0.00000       0.00000    
     18411 BUTH     202      BUTH     O2       OD31A     1.58240       15.5990           0 -0.831500      0.749400    
     18412 BUTH     202      BUTH     DO2      DRUD     -1.58240      0.400000           0   0.00000       0.00000    
     18413 BUTH     202      BUTH     H1       HDA3A    0.900000E-01   1.00800           0   0.00000       0.00000    
     18414 BUTH     202      BUTH     H2       HDA3A    0.900000E-01   1.00800           0   0.00000       0.00000    
     18415 BUTH     202      BUTH     H3       HDA3A    0.900000E-01   1.00800           0   0.00000       0.00000    
     18416 BUTH     202      BUTH     H4       HDA2A    0.900000E-01   1.00800           0   0.00000       0.00000    
     18417 BUTH     202      BUTH     H5       HDA2A    0.900000E-01   1.00800           0   0.00000       0.00000    
     18418 BUTH     202      BUTH     H6       HDA2A    0.900000E-01   1.00800           0   0.00000       0.00000    
     18419 BUTH     202      BUTH     H7       HDA2A    0.900000E-01   1.00800           0   0.00000       0.00000    
     18420 BUTH     202      BUTH     H8       HDP1A    0.430000       1.00800           0   0.00000       0.00000    
     18421 BUTH     202      BUTH     H9       DUMH      0.00000       1.00800           0   0.00000       0.00000    
     18422 BUTH     202      BUTH     LPO11    LPDO1   -0.287000       0.00000          -1   0.00000       0.00000    
     18423 BUTH     202      BUTH     LPO12    LPDO1   -0.288000       0.00000          -1   0.00000       0.00000    
     18424 BUTH     202      BUTH     LPO21    LPD     -0.302000       0.00000          -1   0.00000       0.00000    
     18425 BUTH     202      BUTH     LPO22    LPD     -0.303000       0.00000          -1   0.00000       0.00000    
     18426 BUTH     203      BUTH     C1       CD33A     2.05990       11.6110           0  -1.81190       1.18670    
     18427 BUTH     203      BUTH     DC1      DRUD     -2.33590      0.400000           0   0.00000       0.00000    
     18428 BUTH     203      BUTH     C2       CD32A     2.02070       11.6110           0  -1.59660       1.16930    
     18429 BUTH     203      BUTH     DC2      DRUD     -2.19270      0.400000           0   0.00000       0.00000    
     18430 BUTH     203      BUTH     C3       CD32A     1.98270       11.6110           0  -1.59660       1.16930    
     18431 BUTH     203      BUTH     DC3      DRUD     -2.19270      0.400000           0   0.00000       0.00000    
     18432 BUTH     203      BUTH     C4       CD2O3A    2.72690       11.6110           0  -1.26130       1.05430    
     18433 BUTH     203      BUTH     DC4      DRUD     -1.94890      0.400000           0   0.00000       0.00000    
     18434 BUTH     203      BUTH     O1       OD2C1A    1.46540       15.5994           0 -0.713100      0.569800    
     18435 BUTH     203      BUTH     DO1      DRUD     -1.46540      0.400000           0   0.00000       0.00000    
     18436 BUTH     203      BUTH     O2       OD31A     1.58240       15.5990           0 -0.831500      0.749400    
     18437 BUTH     203      BUTH     DO2      DRUD     -1.58240      0.400000           0   0.00000       0.00000    
     18438 BUTH     203      BUTH     H1       HDA3A    0.900000E-01   1.00800           0   0.00000       0.00000    
     18439 BUTH     203      BUTH     H2       HDA3A    0.900000E-01   1.00800           0   0.00000       0.00000    
     18440 BUTH     203      BUTH     H3       HDA3A    0.900000E-01   1.00800           0   0.00000       0.00000    
     18441 BUTH     203      BUTH     H4       HDA2A    0.900000E-01   1.00800           0   0.00000       0.00000    
     18442 BUTH     203      BUTH     H5       HDA2A    0.900000E-01   1.00800           0   0.00000       0.00000    
     18443 BUTH     203      BUTH     H6       HDA2A    0.900000E-01   1.00800           0   0.00000       0.00000    
     18444 BUTH     203      BUTH     H7       HDA2A    0.900000E-01   1.00800           0   0.00000       0.00000    
     18445 BUTH     203      BUTH     H8       HDP1A    0.430000       1.00800           0   0.00000       0.00000    
     18446 BUTH     203      BUTH     H9       DUMH      0.00000       1.00800           0   0.00000       0.00000    
     18447 BUTH     203      BUTH     LPO11    LPDO1   -0.287000       0.00000          -1   0.00000       0.00000    
     18448 BUTH     203      BUTH     LPO12    LPDO1   -0.288000       0.00000          -1   0.00000       0.00000    
     18449 BUTH     203      BUTH     LPO21    LPD     -0.302000       0.00000          -1   0.00000       0.00000    
     18450 BUTH     203      BUTH     LPO22    LPD     -0.303000       0.00000          -1   0.00000       0.00000    
     18451 BUTH     204      BUTH     C1       CD33A     2.05990       11.6110           0  -1.81190       1.18670    
     18452 BUTH     204      BUTH     DC1      DRUD     -2.33590      0.400000           0   0.00000       0.00000    
     18453 BUTH     204      BUTH     C2       CD32A     2.02070       11.6110           0  -1.59660       1.16930    
     18454 BUTH     204      BUTH     DC2      DRUD     -2.19270      0.400000           0   0.00000       0.00000    
     18455 BUTH     204      BUTH     C3       CD32A     1.98270       11.6110           0  -1.59660       1.16930    
     18456 BUTH     204      BUTH     DC3      DRUD     -2.19270      0.400000           0   0.00000       0.00000    
     18457 BUTH     204      BUTH     C4       CD2O3A    2.72690       11.6110           0  -1.26130       1.05430    
     18458 BUTH     204      BUTH     DC4      DRUD     -1.94890      0.400000           0   0.00000       0.00000    
     18459 BUTH     204      BUTH     O1       OD2C1A    1.46540       15.5994           0 -0.713100      0.569800    
     18460 BUTH     204      BUTH     DO1      DRUD     -1.46540      0.400000           0   0.00000       0.00000    
     18461 BUTH     204      BUTH     O2       OD31A     1.58240       15.5990           0 -0.831500      0.749400    
     18462 BUTH     204      BUTH     DO2      DRUD     -1.58240      0.400000           0   0.00000       0.00000    
     18463 BUTH     204      BUTH     H1       HDA3A    0.900000E-01   1.00800           0   0.00000       0.00000    
     18464 BUTH     204      BUTH     H2       HDA3A    0.900000E-01   1.00800           0   0.00000       0.00000    
     18465 BUTH     204      BUTH     H3       HDA3A    0.900000E-01   1.00800           0   0.00000       0.00000    
     18466 BUTH     204      BUTH     H4       HDA2A    0.900000E-01   1.00800           0   0.00000       0.00000    
     18467 BUTH     204      BUTH     H5       HDA2A    0.900000E-01   1.00800           0   0.00000       0.00000    
     18468 BUTH     204      BUTH     H6       HDA2A    0.900000E-01   1.00800           0   0.00000       0.00000    
     18469 BUTH     204      BUTH     H7       HDA2A    0.900000E-01   1.00800           0   0.00000       0.00000    
     18470 BUTH     204      BUTH     H8       HDP1A    0.430000       1.00800           0   0.00000       0.00000    
     18471 BUTH     204      BUTH     H9       DUMH      0.00000       1.00800           0   0.00000       0.00000    
     18472 BUTH     204      BUTH     LPO11    LPDO1   -0.287000       0.00000          -1   0.00000       0.00000    
     18473 BUTH     204      BUTH     LPO12    LPDO1   -0.288000       0.00000          -1   0.00000       0.00000    
     18474 BUTH     204      BUTH     LPO21    LPD     -0.302000       0.00000          -1   0.00000       0.00000    
     18475 BUTH     204      BUTH     LPO22    LPD     -0.303000       0.00000          -1   0.00000       0.00000    
     18476 BUTH     205      BUTH     C1       CD33A     2.05990       11.6110           0  -1.81190       1.18670    
     18477 BUTH     205      BUTH     DC1      DRUD     -2.33590      0.400000           0   0.00000       0.00000    
     18478 BUTH     205      BUTH     C2       CD32A     2.02070       11.6110           0  -1.59660       1.16930    
     18479 BUTH     205      BUTH     DC2      DRUD     -2.19270      0.400000           0   0.00000       0.00000    
     18480 BUTH     205      BUTH     C3       CD32A     1.98270       11.6110           0  -1.59660       1.16930    
     18481 BUTH     205      BUTH     DC3      DRUD     -2.19270      0.400000           0   0.00000       0.00000    
     18482 BUTH     205      BUTH     C4       CD2O3A    2.72690       11.6110           0  -1.26130       1.05430    
     18483 BUTH     205      BUTH     DC4      DRUD     -1.94890      0.400000           0   0.00000       0.00000    
     18484 BUTH     205      BUTH     O1       OD2C1A    1.46540       15.5994           0 -0.713100      0.569800    
     18485 BUTH     205      BUTH     DO1      DRUD     -1.46540      0.400000           0   0.00000       0.00000    
     18486 BUTH     205      BUTH     O2       OD31A     1.58240       15.5990           0 -0.831500      0.749400    
     18487 BUTH     205      BUTH     DO2      DRUD     -1.58240      0.400000           0   0.00000       0.00000    
     18488 BUTH     205      BUTH     H1       HDA3A    0.900000E-01   1.00800           0   0.00000       0.00000    
     18489 BUTH     205      BUTH     H2       HDA3A    0.900000E-01   1.00800           0   0.00000       0.00000    
     18490 BUTH     205      BUTH     H3       HDA3A    0.900000E-01   1.00800           0   0.00000       0.00000    
     18491 BUTH     205      BUTH     H4       HDA2A    0.900000E-01   1.00800           0   0.00000       0.00000    
     18492 BUTH     205      BUTH     H5       HDA2A    0.900000E-01   1.00800           0   0.00000       0.00000    
     18493 BUTH     205      BUTH     H6       HDA2A    0.900000E-01   1.00800           0   0.00000       0.00000    
     18494 BUTH     205      BUTH     H7       HDA2A    0.900000E-01   1.00800           0   0.00000       0.00000    
     18495 BUTH     205      BUTH     H8       HDP1A    0.430000       1.00800           0   0.00000       0.00000    
     18496 BUTH     205      BUTH     H9       DUMH      0.00000       1.00800           0   0.00000       0.00000    
     18497 BUTH     205      BUTH     LPO11    LPDO1   -0.287000       0.00000          -1   0.00000       0.00000    
     18498 BUTH     205      BUTH     LPO12    LPDO1   -0.288000       0.00000          -1   0.00000       0.00000    
     18499 BUTH     205      BUTH     LPO21    LPD     -0.302000       0.00000          -1   0.00000       0.00000    
     18500 BUTH     205      BUTH     LPO22    LPD     -0.303000       0.00000          -1   0.00000       0.00000    
     18501 BUTH     206      BUTH     C1       CD33A     2.05990       11.6110           0  -1.81190       1.18670    
     18502 BUTH     206      BUTH     DC1      DRUD     -2.33590      0.400000           0   0.00000       0.00000    
     18503 BUTH     206      BUTH     C2       CD32A     2.02070       11.6110           0  -1.59660       1.16930    
     18504 BUTH     206      BUTH     DC2      DRUD     -2.19270      0.400000           0   0.00000       0.00000    
     18505 BUTH     206      BUTH     C3       CD32A     1.98270       11.6110           0  -1.59660       1.16930    
     18506 BUTH     206      BUTH     DC3      DRUD     -2.19270      0.400000           0   0.00000       0.00000    
     18507 BUTH     206      BUTH     C4       CD2O3A    2.72690       11.6110           0  -1.26130       1.05430    
     18508 BUTH     206      BUTH     DC4      DRUD     -1.94890      0.400000           0   0.00000       0.00000    
     18509 BUTH     206      BUTH     O1       OD2C1A    1.46540       15.5994           0 -0.713100      0.569800    
     18510 BUTH     206      BUTH     DO1      DRUD     -1.46540      0.400000           0   0.00000       0.00000    
     18511 BUTH     206      BUTH     O2       OD31A     1.58240       15.5990           0 -0.831500      0.749400    
     18512 BUTH     206      BUTH     DO2      DRUD     -1.58240      0.400000           0   0.00000       0.00000    
     18513 BUTH     206      BUTH     H1       HDA3A    0.900000E-01   1.00800           0   0.00000       0.00000    
     18514 BUTH     206      BUTH     H2       HDA3A    0.900000E-01   1.00800           0   0.00000       0.00000    
     18515 BUTH     206      BUTH     H3       HDA3A    0.900000E-01   1.00800           0   0.00000       0.00000    
     18516 BUTH     206      BUTH     H4       HDA2A    0.900000E-01   1.00800           0   0.00000       0.00000    
     18517 BUTH     206      BUTH     H5       HDA2A    0.900000E-01   1.00800           0   0.00000       0.00000    
     18518 BUTH     206      BUTH     H6       HDA2A    0.900000E-01   1.00800           0   0.00000       0.00000    
     18519 BUTH     206      BUTH     H7       HDA2A    0.900000E-01   1.00800           0   0.00000       0.00000    
     18520 BUTH     206      BUTH     H8       HDP1A    0.430000       1.00800           0   0.00000       0.00000    
     18521 BUTH     206      BUTH     H9       DUMH      0.00000       1.00800           0   0.00000       0.00000    
     18522 BUTH     206      BUTH     LPO11    LPDO1   -0.287000       0.00000          -1   0.00000       0.00000    
     18523 BUTH     206      BUTH     LPO12    LPDO1   -0.288000       0.00000          -1   0.00000       0.00000    
     18524 BUTH     206      BUTH     LPO21    LPD     -0.302000       0.00000          -1   0.00000       0.00000    
     18525 BUTH     206      BUTH     LPO22    LPD     -0.303000       0.00000          -1   0.00000       0.00000    
     18526 BUTH     207      BUTH     C1       CD33A     2.05990       11.6110           0  -1.81190       1.18670    
     18527 BUTH     207      BUTH     DC1      DRUD     -2.33590      0.400000           0   0.00000       0.00000    
     18528 BUTH     207      BUTH     C2       CD32A     2.02070       11.6110           0  -1.59660       1.16930    
     18529 BUTH     207      BUTH     DC2      DRUD     -2.19270      0.400000           0   0.00000       0.00000    
     18530 BUTH     207      BUTH     C3       CD32A     1.98270       11.6110           0  -1.59660       1.16930    
     18531 BUTH     207      BUTH     DC3      DRUD     -2.19270      0.400000           0   0.00000       0.00000    
     18532 BUTH     207      BUTH     C4       CD2O3A    2.72690       11.6110           0  -1.26130       1.05430    
     18533 BUTH     207      BUTH     DC4      DRUD     -1.94890      0.400000           0   0.00000       0.00000    
     18534 BUTH     207      BUTH     O1       OD2C1A    1.46540       15.5994           0 -0.713100      0.569800    
     18535 BUTH     207      BUTH     DO1      DRUD     -1.46540      0.400000           0   0.00000       0.00000    
     18536 BUTH     207      BUTH     O2       OD31A     1.58240       15.5990           0 -0.831500      0.749400    
     18537 BUTH     207      BUTH     DO2      DRUD     -1.58240      0.400000           0   0.00000       0.00000    
     18538 BUTH     207      BUTH     H1       HDA3A    0.900000E-01   1.00800           0   0.00000       0.00000    
     18539 BUTH     207      BUTH     H2       HDA3A    0.900000E-01   1.00800           0   0.00000       0.00000    
     18540 BUTH     207      BUTH     H3       HDA3A    0.900000E-01   1.00800           0   0.00000       0.00000    
     18541 BUTH     207      BUTH     H4       HDA2A    0.900000E-01   1.00800           0   0.00000       0.00000    
     18542 BUTH     207      BUTH     H5       HDA2A    0.900000E-01   1.00800           0   0.00000       0.00000    
     18543 BUTH     207      BUTH     H6       HDA2A    0.900000E-01   1.00800           0   0.00000       0.00000    
     18544 BUTH     207      BUTH     H7       HDA2A    0.900000E-01   1.00800           0   0.00000       0.00000    
     18545 BUTH     207      BUTH     H8       HDP1A    0.430000       1.00800           0   0.00000       0.00000    
     18546 BUTH     207      BUTH     H9       DUMH      0.00000       1.00800           0   0.00000       0.00000    
     18547 BUTH     207      BUTH     LPO11    LPDO1   -0.287000       0.00000          -1   0.00000       0.00000    
     18548 BUTH     207      BUTH     LPO12    LPDO1   -0.288000       0.00000          -1   0.00000       0.00000    
     18549 BUTH     207      BUTH     LPO21    LPD     -0.302000       0.00000          -1   0.00000       0.00000    
     18550 BUTH     207      BUTH     LPO22    LPD     -0.303000       0.00000          -1   0.00000       0.00000    
     18551 BUTH     208      BUTH     C1       CD33A     2.05990       11.6110           0  -1.81190       1.18670    
     18552 BUTH     208      BUTH     DC1      DRUD     -2.33590      0.400000           0   0.00000       0.00000    
     18553 BUTH     208      BUTH     C2       CD32A     2.02070       11.6110           0  -1.59660       1.16930    
     18554 BUTH     208      BUTH     DC2      DRUD     -2.19270      0.400000           0   0.00000       0.00000    
     18555 BUTH     208      BUTH     C3       CD32A     1.98270       11.6110           0  -1.59660       1.16930    
     18556 BUTH     208      BUTH     DC3      DRUD     -2.19270      0.400000           0   0.00000       0.00000    
     18557 BUTH     208      BUTH     C4       CD2O3A    2.72690       11.6110           0  -1.26130       1.05430    
     18558 BUTH     208      BUTH     DC4      DRUD     -1.94890      0.400000           0   0.00000       0.00000    
     18559 BUTH     208      BUTH     O1       OD2C1A    1.46540       15.5994           0 -0.713100      0.569800    
     18560 BUTH     208      BUTH     DO1      DRUD     -1.46540      0.400000           0   0.00000       0.00000    
     18561 BUTH     208      BUTH     O2       OD31A     1.58240       15.5990           0 -0.831500      0.749400    
     18562 BUTH     208      BUTH     DO2      DRUD     -1.58240      0.400000           0   0.00000       0.00000    
     18563 BUTH     208      BUTH     H1       HDA3A    0.900000E-01   1.00800           0   0.00000       0.00000    
     18564 BUTH     208      BUTH     H2       HDA3A    0.900000E-01   1.00800           0   0.00000       0.00000    
     18565 BUTH     208      BUTH     H3       HDA3A    0.900000E-01   1.00800           0   0.00000       0.00000    
     18566 BUTH     208      BUTH     H4       HDA2A    0.900000E-01   1.00800           0   0.00000       0.00000    
     18567 BUTH     208      BUTH     H5       HDA2A    0.900000E-01   1.00800           0   0.00000       0.00000    
     18568 BUTH     208      BUTH     H6       HDA2A    0.900000E-01   1.00800           0   0.00000       0.00000    
     18569 BUTH     208      BUTH     H7       HDA2A    0.900000E-01   1.00800           0   0.00000       0.00000    
     18570 BUTH     208      BUTH     H8       HDP1A    0.430000       1.00800           0   0.00000       0.00000    
     18571 BUTH     208      BUTH     H9       DUMH      0.00000       1.00800           0   0.00000       0.00000    
     18572 BUTH     208      BUTH     LPO11    LPDO1   -0.287000       0.00000          -1   0.00000       0.00000    
     18573 BUTH     208      BUTH     LPO12    LPDO1   -0.288000       0.00000          -1   0.00000       0.00000    
     18574 BUTH     208      BUTH     LPO21    LPD     -0.302000       0.00000          -1   0.00000       0.00000    
     18575 BUTH     208      BUTH     LPO22    LPD     -0.303000       0.00000          -1   0.00000       0.00000    
     18576 BUTH     209      BUTH     C1       CD33A     2.05990       11.6110           0  -1.81190       1.18670    
     18577 BUTH     209      BUTH     DC1      DRUD     -2.33590      0.400000           0   0.00000       0.00000    
     18578 BUTH     209      BUTH     C2       CD32A     2.02070       11.6110           0  -1.59660       1.16930    
     18579 BUTH     209      BUTH     DC2      DRUD     -2.19270      0.400000           0   0.00000       0.00000    
     18580 BUTH     209      BUTH     C3       CD32A     1.98270       11.6110           0  -1.59660       1.16930    
     18581 BUTH     209      BUTH     DC3      DRUD     -2.19270      0.400000           0   0.00000       0.00000    
     18582 BUTH     209      BUTH     C4       CD2O3A    2.72690       11.6110           0  -1.26130       1.05430    
     18583 BUTH     209      BUTH     DC4      DRUD     -1.94890      0.400000           0   0.00000       0.00000    
     18584 BUTH     209      BUTH     O1       OD2C1A    1.46540       15.5994           0 -0.713100      0.569800    
     18585 BUTH     209      BUTH     DO1      DRUD     -1.46540      0.400000           0   0.00000       0.00000    
     18586 BUTH     209      BUTH     O2       OD31A     1.58240       15.5990           0 -0.831500      0.749400    
     18587 BUTH     209      BUTH     DO2      DRUD     -1.58240      0.400000           0   0.00000       0.00000    
     18588 BUTH     209      BUTH     H1       HDA3A    0.900000E-01   1.00800           0   0.00000       0.00000    
     18589 BUTH     209      BUTH     H2       HDA3A    0.900000E-01   1.00800           0   0.00000       0.00000    
     18590 BUTH     209      BUTH     H3       HDA3A    0.900000E-01   1.00800           0   0.00000       0.00000    
     18591 BUTH     209      BUTH     H4       HDA2A    0.900000E-01   1.00800           0   0.00000       0.00000    
     18592 BUTH     209      BUTH     H5       HDA2A    0.900000E-01   1.00800           0   0.00000       0.00000    
     18593 BUTH     209      BUTH     H6       HDA2A    0.900000E-01   1.00800           0   0.00000       0.00000    
     18594 BUTH     209      BUTH     H7       HDA2A    0.900000E-01   1.00800           0   0.00000       0.00000    
     18595 BUTH     209      BUTH     H8       HDP1A    0.430000       1.00800           0   0.00000       0.00000    
     18596 BUTH     209      BUTH     H9       DUMH      0.00000       1.00800           0   0.00000       0.00000    
     18597 BUTH     209      BUTH     LPO11    LPDO1   -0.287000       0.00000          -1   0.00000       0.00000    
     18598 BUTH     209      BUTH     LPO12    LPDO1   -0.288000       0.00000          -1   0.00000       0.00000    
     18599 BUTH     209      BUTH     LPO21    LPD     -0.302000       0.00000          -1   0.00000       0.00000    
     18600 BUTH     209      BUTH     LPO22    LPD     -0.303000       0.00000          -1   0.00000       0.00000    
     18601 BUTH     210      BUTH     C1       CD33A     2.05990       11.6110           0  -1.81190       1.18670    
     18602 BUTH     210      BUTH     DC1      DRUD     -2.33590      0.400000           0   0.00000       0.00000    
     18603 BUTH     210      BUTH     C2       CD32A     2.02070       11.6110           0  -1.59660       1.16930    
     18604 BUTH     210      BUTH     DC2      DRUD     -2.19270      0.400000           0   0.00000       0.00000    
     18605 BUTH     210      BUTH     C3       CD32A     1.98270       11.6110           0  -1.59660       1.16930    
     18606 BUTH     210      BUTH     DC3      DRUD     -2.19270      0.400000           0   0.00000       0.00000    
     18607 BUTH     210      BUTH     C4       CD2O3A    2.72690       11.6110           0  -1.26130       1.05430    
     18608 BUTH     210      BUTH     DC4      DRUD     -1.94890      0.400000           0   0.00000       0.00000    
     18609 BUTH     210      BUTH     O1       OD2C1A    1.46540       15.5994           0 -0.713100      0.569800    
     18610 BUTH     210      BUTH     DO1      DRUD     -1.46540      0.400000           0   0.00000       0.00000    
     18611 BUTH     210      BUTH     O2       OD31A     1.58240       15.5990           0 -0.831500      0.749400    
     18612 BUTH     210      BUTH     DO2      DRUD     -1.58240      0.400000           0   0.00000       0.00000    
     18613 BUTH     210      BUTH     H1       HDA3A    0.900000E-01   1.00800           0   0.00000       0.00000    
     18614 BUTH     210      BUTH     H2       HDA3A    0.900000E-01   1.00800           0   0.00000       0.00000    
     18615 BUTH     210      BUTH     H3       HDA3A    0.900000E-01   1.00800           0   0.00000       0.00000    
     18616 BUTH     210      BUTH     H4       HDA2A    0.900000E-01   1.00800           0   0.00000       0.00000    
     18617 BUTH     210      BUTH     H5       HDA2A    0.900000E-01   1.00800           0   0.00000       0.00000    
     18618 BUTH     210      BUTH     H6       HDA2A    0.900000E-01   1.00800           0   0.00000       0.00000    
     18619 BUTH     210      BUTH     H7       HDA2A    0.900000E-01   1.00800           0   0.00000       0.00000    
     18620 BUTH     210      BUTH     H8       HDP1A    0.430000       1.00800           0   0.00000       0.00000    
     18621 BUTH     210      BUTH     H9       DUMH      0.00000       1.00800           0   0.00000       0.00000    
     18622 BUTH     210      BUTH     LPO11    LPDO1   -0.287000       0.00000          -1   0.00000       0.00000    
     18623 BUTH     210      BUTH     LPO12    LPDO1   -0.288000       0.00000          -1   0.00000       0.00000    
     18624 BUTH     210      BUTH     LPO21    LPD     -0.302000       0.00000          -1   0.00000       0.00000    
     18625 BUTH     210      BUTH     LPO22    LPD     -0.303000       0.00000          -1   0.00000       0.00000    
     18626 BUTH     211      BUTH     C1       CD33A     2.05990       11.6110           0  -1.81190       1.18670    
     18627 BUTH     211      BUTH     DC1      DRUD     -2.33590      0.400000           0   0.00000       0.00000    
     18628 BUTH     211      BUTH     C2       CD32A     2.02070       11.6110           0  -1.59660       1.16930    
     18629 BUTH     211      BUTH     DC2      DRUD     -2.19270      0.400000           0   0.00000       0.00000    
     18630 BUTH     211      BUTH     C3       CD32A     1.98270       11.6110           0  -1.59660       1.16930    
     18631 BUTH     211      BUTH     DC3      DRUD     -2.19270      0.400000           0   0.00000       0.00000    
     18632 BUTH     211      BUTH     C4       CD2O3A    2.72690       11.6110           0  -1.26130       1.05430    
     18633 BUTH     211      BUTH     DC4      DRUD     -1.94890      0.400000           0   0.00000       0.00000    
     18634 BUTH     211      BUTH     O1       OD2C1A    1.46540       15.5994           0 -0.713100      0.569800    
     18635 BUTH     211      BUTH     DO1      DRUD     -1.46540      0.400000           0   0.00000       0.00000    
     18636 BUTH     211      BUTH     O2       OD31A     1.58240       15.5990           0 -0.831500      0.749400    
     18637 BUTH     211      BUTH     DO2      DRUD     -1.58240      0.400000           0   0.00000       0.00000    
     18638 BUTH     211      BUTH     H1       HDA3A    0.900000E-01   1.00800           0   0.00000       0.00000    
     18639 BUTH     211      BUTH     H2       HDA3A    0.900000E-01   1.00800           0   0.00000       0.00000    
     18640 BUTH     211      BUTH     H3       HDA3A    0.900000E-01   1.00800           0   0.00000       0.00000    
     18641 BUTH     211      BUTH     H4       HDA2A    0.900000E-01   1.00800           0   0.00000       0.00000    
     18642 BUTH     211      BUTH     H5       HDA2A    0.900000E-01   1.00800           0   0.00000       0.00000    
     18643 BUTH     211      BUTH     H6       HDA2A    0.900000E-01   1.00800           0   0.00000       0.00000    
     18644 BUTH     211      BUTH     H7       HDA2A    0.900000E-01   1.00800           0   0.00000       0.00000    
     18645 BUTH     211      BUTH     H8       HDP1A    0.430000       1.00800           0   0.00000       0.00000    
     18646 BUTH     211      BUTH     H9       DUMH      0.00000       1.00800           0   0.00000       0.00000    
     18647 BUTH     211      BUTH     LPO11    LPDO1   -0.287000       0.00000          -1   0.00000       0.00000    
     18648 BUTH     211      BUTH     LPO12    LPDO1   -0.288000       0.00000          -1   0.00000       0.00000    
     18649 BUTH     211      BUTH     LPO21    LPD     -0.302000       0.00000          -1   0.00000       0.00000    
     18650 BUTH     211      BUTH     LPO22    LPD     -0.303000       0.00000          -1   0.00000       0.00000    
     18651 BUTH     212      BUTH     C1       CD33A     2.05990       11.6110           0  -1.81190       1.18670    
     18652 BUTH     212      BUTH     DC1      DRUD     -2.33590      0.400000           0   0.00000       0.00000    
     18653 BUTH     212      BUTH     C2       CD32A     2.02070       11.6110           0  -1.59660       1.16930    
     18654 BUTH     212      BUTH     DC2      DRUD     -2.19270      0.400000           0   0.00000       0.00000    
     18655 BUTH     212      BUTH     C3       CD32A     1.98270       11.6110           0  -1.59660       1.16930    
     18656 BUTH     212      BUTH     DC3      DRUD     -2.19270      0.400000           0   0.00000       0.00000    
     18657 BUTH     212      BUTH     C4       CD2O3A    2.72690       11.6110           0  -1.26130       1.05430    
     18658 BUTH     212      BUTH     DC4      DRUD     -1.94890      0.400000           0   0.00000       0.00000    
     18659 BUTH     212      BUTH     O1       OD2C1A    1.46540       15.5994           0 -0.713100      0.569800    
     18660 BUTH     212      BUTH     DO1      DRUD     -1.46540      0.400000           0   0.00000       0.00000    
     18661 BUTH     212      BUTH     O2       OD31A     1.58240       15.5990           0 -0.831500      0.749400    
     18662 BUTH     212      BUTH     DO2      DRUD     -1.58240      0.400000           0   0.00000       0.00000    
     18663 BUTH     212      BUTH     H1       HDA3A    0.900000E-01   1.00800           0   0.00000       0.00000    
     18664 BUTH     212      BUTH     H2       HDA3A    0.900000E-01   1.00800           0   0.00000       0.00000    
     18665 BUTH     212      BUTH     H3       HDA3A    0.900000E-01   1.00800           0   0.00000       0.00000    
     18666 BUTH     212      BUTH     H4       HDA2A    0.900000E-01   1.00800           0   0.00000       0.00000    
     18667 BUTH     212      BUTH     H5       HDA2A    0.900000E-01   1.00800           0   0.00000       0.00000    
     18668 BUTH     212      BUTH     H6       HDA2A    0.900000E-01   1.00800           0   0.00000       0.00000    
     18669 BUTH     212      BUTH     H7       HDA2A    0.900000E-01   1.00800           0   0.00000       0.00000    
     18670 BUTH     212      BUTH     H8       HDP1A    0.430000       1.00800           0   0.00000       0.00000    
     18671 BUTH     212      BUTH     H9       DUMH      0.00000       1.00800           0   0.00000       0.00000    
     18672 BUTH     212      BUTH     LPO11    LPDO1   -0.287000       0.00000          -1   0.00000       0.00000    
     18673 BUTH     212      BUTH     LPO12    LPDO1   -0.288000       0.00000          -1   0.00000       0.00000    
     18674 BUTH     212      BUTH     LPO21    LPD     -0.302000       0.00000          -1   0.00000       0.00000    
     18675 BUTH     212      BUTH     LPO22    LPD     -0.303000       0.00000          -1   0.00000       0.00000    
     18676 BUTH     213      BUTH     C1       CD33A     2.05990       11.6110           0  -1.81190       1.18670    
     18677 BUTH     213      BUTH     DC1      DRUD     -2.33590      0.400000           0   0.00000       0.00000    
     18678 BUTH     213      BUTH     C2       CD32A     2.02070       11.6110           0  -1.59660       1.16930    
     18679 BUTH     213      BUTH     DC2      DRUD     -2.19270      0.400000           0   0.00000       0.00000    
     18680 BUTH     213      BUTH     C3       CD32A     1.98270       11.6110           0  -1.59660       1.16930    
     18681 BUTH     213      BUTH     DC3      DRUD     -2.19270      0.400000           0   0.00000       0.00000    
     18682 BUTH     213      BUTH     C4       CD2O3A    2.72690       11.6110           0  -1.26130       1.05430    
     18683 BUTH     213      BUTH     DC4      DRUD     -1.94890      0.400000           0   0.00000       0.00000    
     18684 BUTH     213      BUTH     O1       OD2C1A    1.46540       15.5994           0 -0.713100      0.569800    
     18685 BUTH     213      BUTH     DO1      DRUD     -1.46540      0.400000           0   0.00000       0.00000    
     18686 BUTH     213      BUTH     O2       OD31A     1.58240       15.5990           0 -0.831500      0.749400    
     18687 BUTH     213      BUTH     DO2      DRUD     -1.58240      0.400000           0   0.00000       0.00000    
     18688 BUTH     213      BUTH     H1       HDA3A    0.900000E-01   1.00800           0   0.00000       0.00000    
     18689 BUTH     213      BUTH     H2       HDA3A    0.900000E-01   1.00800           0   0.00000       0.00000    
     18690 BUTH     213      BUTH     H3       HDA3A    0.900000E-01   1.00800           0   0.00000       0.00000    
     18691 BUTH     213      BUTH     H4       HDA2A    0.900000E-01   1.00800           0   0.00000       0.00000    
     18692 BUTH     213      BUTH     H5       HDA2A    0.900000E-01   1.00800           0   0.00000       0.00000    
     18693 BUTH     213      BUTH     H6       HDA2A    0.900000E-01   1.00800           0   0.00000       0.00000    
     18694 BUTH     213      BUTH     H7       HDA2A    0.900000E-01   1.00800           0   0.00000       0.00000    
     18695 BUTH     213      BUTH     H8       HDP1A    0.430000       1.00800           0   0.00000       0.00000    
     18696 BUTH     213      BUTH     H9       DUMH      0.00000       1.00800           0   0.00000       0.00000    
     18697 BUTH     213      BUTH     LPO11    LPDO1   -0.287000       0.00000          -1   0.00000       0.00000    
     18698 BUTH     213      BUTH     LPO12    LPDO1   -0.288000       0.00000          -1   0.00000       0.00000    
     18699 BUTH     213      BUTH     LPO21    LPD     -0.302000       0.00000          -1   0.00000       0.00000    
     18700 BUTH     213      BUTH     LPO22    LPD     -0.303000       0.00000          -1   0.00000       0.00000    
     18701 BUTH     214      BUTH     C1       CD33A     2.05990       11.6110           0  -1.81190       1.18670    
     18702 BUTH     214      BUTH     DC1      DRUD     -2.33590      0.400000           0   0.00000       0.00000    
     18703 BUTH     214      BUTH     C2       CD32A     2.02070       11.6110           0  -1.59660       1.16930    
     18704 BUTH     214      BUTH     DC2      DRUD     -2.19270      0.400000           0   0.00000       0.00000    
     18705 BUTH     214      BUTH     C3       CD32A     1.98270       11.6110           0  -1.59660       1.16930    
     18706 BUTH     214      BUTH     DC3      DRUD     -2.19270      0.400000           0   0.00000       0.00000    
     18707 BUTH     214      BUTH     C4       CD2O3A    2.72690       11.6110           0  -1.26130       1.05430    
     18708 BUTH     214      BUTH     DC4      DRUD     -1.94890      0.400000           0   0.00000       0.00000    
     18709 BUTH     214      BUTH     O1       OD2C1A    1.46540       15.5994           0 -0.713100      0.569800    
     18710 BUTH     214      BUTH     DO1      DRUD     -1.46540      0.400000           0   0.00000       0.00000    
     18711 BUTH     214      BUTH     O2       OD31A     1.58240       15.5990           0 -0.831500      0.749400    
     18712 BUTH     214      BUTH     DO2      DRUD     -1.58240      0.400000           0   0.00000       0.00000    
     18713 BUTH     214      BUTH     H1       HDA3A    0.900000E-01   1.00800           0   0.00000       0.00000    
     18714 BUTH     214      BUTH     H2       HDA3A    0.900000E-01   1.00800           0   0.00000       0.00000    
     18715 BUTH     214      BUTH     H3       HDA3A    0.900000E-01   1.00800           0   0.00000       0.00000    
     18716 BUTH     214      BUTH     H4       HDA2A    0.900000E-01   1.00800           0   0.00000       0.00000    
     18717 BUTH     214      BUTH     H5       HDA2A    0.900000E-01   1.00800           0   0.00000       0.00000    
     18718 BUTH     214      BUTH     H6       HDA2A    0.900000E-01   1.00800           0   0.00000       0.00000    
     18719 BUTH     214      BUTH     H7       HDA2A    0.900000E-01   1.00800           0   0.00000       0.00000    
     18720 BUTH     214      BUTH     H8       HDP1A    0.430000       1.00800           0   0.00000       0.00000    
     18721 BUTH     214      BUTH     H9       DUMH      0.00000       1.00800           0   0.00000       0.00000    
     18722 BUTH     214      BUTH     LPO11    LPDO1   -0.287000       0.00000          -1   0.00000       0.00000    
     18723 BUTH     214      BUTH     LPO12    LPDO1   -0.288000       0.00000          -1   0.00000       0.00000    
     18724 BUTH     214      BUTH     LPO21    LPD     -0.302000       0.00000          -1   0.00000       0.00000    
     18725 BUTH     214      BUTH     LPO22    LPD     -0.303000       0.00000          -1   0.00000       0.00000    
     18726 BUTH     215      BUTH     C1       CD33A     2.05990       11.6110           0  -1.81190       1.18670    
     18727 BUTH     215      BUTH     DC1      DRUD     -2.33590      0.400000           0   0.00000       0.00000    
     18728 BUTH     215      BUTH     C2       CD32A     2.02070       11.6110           0  -1.59660       1.16930    
     18729 BUTH     215      BUTH     DC2      DRUD     -2.19270      0.400000           0   0.00000       0.00000    
     18730 BUTH     215      BUTH     C3       CD32A     1.98270       11.6110           0  -1.59660       1.16930    
     18731 BUTH     215      BUTH     DC3      DRUD     -2.19270      0.400000           0   0.00000       0.00000    
     18732 BUTH     215      BUTH     C4       CD2O3A    2.72690       11.6110           0  -1.26130       1.05430    
     18733 BUTH     215      BUTH     DC4      DRUD     -1.94890      0.400000           0   0.00000       0.00000    
     18734 BUTH     215      BUTH     O1       OD2C1A    1.46540       15.5994           0 -0.713100      0.569800    
     18735 BUTH     215      BUTH     DO1      DRUD     -1.46540      0.400000           0   0.00000       0.00000    
     18736 BUTH     215      BUTH     O2       OD31A     1.58240       15.5990           0 -0.831500      0.749400    
     18737 BUTH     215      BUTH     DO2      DRUD     -1.58240      0.400000           0   0.00000       0.00000    
     18738 BUTH     215      BUTH     H1       HDA3A    0.900000E-01   1.00800           0   0.00000       0.00000    
     18739 BUTH     215      BUTH     H2       HDA3A    0.900000E-01   1.00800           0   0.00000       0.00000    
     18740 BUTH     215      BUTH     H3       HDA3A    0.900000E-01   1.00800           0   0.00000       0.00000    
     18741 BUTH     215      BUTH     H4       HDA2A    0.900000E-01   1.00800           0   0.00000       0.00000    
     18742 BUTH     215      BUTH     H5       HDA2A    0.900000E-01   1.00800           0   0.00000       0.00000    
     18743 BUTH     215      BUTH     H6       HDA2A    0.900000E-01   1.00800           0   0.00000       0.00000    
     18744 BUTH     215      BUTH     H7       HDA2A    0.900000E-01   1.00800           0   0.00000       0.00000    
     18745 BUTH     215      BUTH     H8       HDP1A    0.430000       1.00800           0   0.00000       0.00000    
     18746 BUTH     215      BUTH     H9       DUMH      0.00000       1.00800           0   0.00000       0.00000    
     18747 BUTH     215      BUTH     LPO11    LPDO1   -0.287000       0.00000          -1   0.00000       0.00000    
     18748 BUTH     215      BUTH     LPO12    LPDO1   -0.288000       0.00000          -1   0.00000       0.00000    
     18749 BUTH     215      BUTH     LPO21    LPD     -0.302000       0.00000          -1   0.00000       0.00000    
     18750 BUTH     215      BUTH     LPO22    LPD     -0.303000       0.00000          -1   0.00000       0.00000    
     18751 BUTH     216      BUTH     C1       CD33A     2.05990       11.6110           0  -1.81190       1.18670    
     18752 BUTH     216      BUTH     DC1      DRUD     -2.33590      0.400000           0   0.00000       0.00000    
     18753 BUTH     216      BUTH     C2       CD32A     2.02070       11.6110           0  -1.59660       1.16930    
     18754 BUTH     216      BUTH     DC2      DRUD     -2.19270      0.400000           0   0.00000       0.00000    
     18755 BUTH     216      BUTH     C3       CD32A     1.98270       11.6110           0  -1.59660       1.16930    
     18756 BUTH     216      BUTH     DC3      DRUD     -2.19270      0.400000           0   0.00000       0.00000    
     18757 BUTH     216      BUTH     C4       CD2O3A    2.72690       11.6110           0  -1.26130       1.05430    
     18758 BUTH     216      BUTH     DC4      DRUD     -1.94890      0.400000           0   0.00000       0.00000    
     18759 BUTH     216      BUTH     O1       OD2C1A    1.46540       15.5994           0 -0.713100      0.569800    
     18760 BUTH     216      BUTH     DO1      DRUD     -1.46540      0.400000           0   0.00000       0.00000    
     18761 BUTH     216      BUTH     O2       OD31A     1.58240       15.5990           0 -0.831500      0.749400    
     18762 BUTH     216      BUTH     DO2      DRUD     -1.58240      0.400000           0   0.00000       0.00000    
     18763 BUTH     216      BUTH     H1       HDA3A    0.900000E-01   1.00800           0   0.00000       0.00000    
     18764 BUTH     216      BUTH     H2       HDA3A    0.900000E-01   1.00800           0   0.00000       0.00000    
     18765 BUTH     216      BUTH     H3       HDA3A    0.900000E-01   1.00800           0   0.00000       0.00000    
     18766 BUTH     216      BUTH     H4       HDA2A    0.900000E-01   1.00800           0   0.00000       0.00000    
     18767 BUTH     216      BUTH     H5       HDA2A    0.900000E-01   1.00800           0   0.00000       0.00000    
     18768 BUTH     216      BUTH     H6       HDA2A    0.900000E-01   1.00800           0   0.00000       0.00000    
     18769 BUTH     216      BUTH     H7       HDA2A    0.900000E-01   1.00800           0   0.00000       0.00000    
     18770 BUTH     216      BUTH     H8       HDP1A    0.430000       1.00800           0   0.00000       0.00000    
     18771 BUTH     216      BUTH     H9       DUMH      0.00000       1.00800           0   0.00000       0.00000    
     18772 BUTH     216      BUTH     LPO11    LPDO1   -0.287000       0.00000          -1   0.00000       0.00000    
     18773 BUTH     216      BUTH     LPO12    LPDO1   -0.288000       0.00000          -1   0.00000       0.00000    
     18774 BUTH     216      BUTH     LPO21    LPD     -0.302000       0.00000          -1   0.00000       0.00000    
     18775 BUTH     216      BUTH     LPO22    LPD     -0.303000       0.00000          -1   0.00000       0.00000    
     18776 BUTH     217      BUTH     C1       CD33A     2.05990       11.6110           0  -1.81190       1.18670    
     18777 BUTH     217      BUTH     DC1      DRUD     -2.33590      0.400000           0   0.00000       0.00000    
     18778 BUTH     217      BUTH     C2       CD32A     2.02070       11.6110           0  -1.59660       1.16930    
     18779 BUTH     217      BUTH     DC2      DRUD     -2.19270      0.400000           0   0.00000       0.00000    
     18780 BUTH     217      BUTH     C3       CD32A     1.98270       11.6110           0  -1.59660       1.16930    
     18781 BUTH     217      BUTH     DC3      DRUD     -2.19270      0.400000           0   0.00000       0.00000    
     18782 BUTH     217      BUTH     C4       CD2O3A    2.72690       11.6110           0  -1.26130       1.05430    
     18783 BUTH     217      BUTH     DC4      DRUD     -1.94890      0.400000           0   0.00000       0.00000    
     18784 BUTH     217      BUTH     O1       OD2C1A    1.46540       15.5994           0 -0.713100      0.569800    
     18785 BUTH     217      BUTH     DO1      DRUD     -1.46540      0.400000           0   0.00000       0.00000    
     18786 BUTH     217      BUTH     O2       OD31A     1.58240       15.5990           0 -0.831500      0.749400    
     18787 BUTH     217      BUTH     DO2      DRUD     -1.58240      0.400000           0   0.00000       0.00000    
     18788 BUTH     217      BUTH     H1       HDA3A    0.900000E-01   1.00800           0   0.00000       0.00000    
     18789 BUTH     217      BUTH     H2       HDA3A    0.900000E-01   1.00800           0   0.00000       0.00000    
     18790 BUTH     217      BUTH     H3       HDA3A    0.900000E-01   1.00800           0   0.00000       0.00000    
     18791 BUTH     217      BUTH     H4       HDA2A    0.900000E-01   1.00800           0   0.00000       0.00000    
     18792 BUTH     217      BUTH     H5       HDA2A    0.900000E-01   1.00800           0   0.00000       0.00000    
     18793 BUTH     217      BUTH     H6       HDA2A    0.900000E-01   1.00800           0   0.00000       0.00000    
     18794 BUTH     217      BUTH     H7       HDA2A    0.900000E-01   1.00800           0   0.00000       0.00000    
     18795 BUTH     217      BUTH     H8       HDP1A    0.430000       1.00800           0   0.00000       0.00000    
     18796 BUTH     217      BUTH     H9       DUMH      0.00000       1.00800           0   0.00000       0.00000    
     18797 BUTH     217      BUTH     LPO11    LPDO1   -0.287000       0.00000          -1   0.00000       0.00000    
     18798 BUTH     217      BUTH     LPO12    LPDO1   -0.288000       0.00000          -1   0.00000       0.00000    
     18799 BUTH     217      BUTH     LPO21    LPD     -0.302000       0.00000          -1   0.00000       0.00000    
     18800 BUTH     217      BUTH     LPO22    LPD     -0.303000       0.00000          -1   0.00000       0.00000    
     18801 BUTH     218      BUTH     C1       CD33A     2.05990       11.6110           0  -1.81190       1.18670    
     18802 BUTH     218      BUTH     DC1      DRUD     -2.33590      0.400000           0   0.00000       0.00000    
     18803 BUTH     218      BUTH     C2       CD32A     2.02070       11.6110           0  -1.59660       1.16930    
     18804 BUTH     218      BUTH     DC2      DRUD     -2.19270      0.400000           0   0.00000       0.00000    
     18805 BUTH     218      BUTH     C3       CD32A     1.98270       11.6110           0  -1.59660       1.16930    
     18806 BUTH     218      BUTH     DC3      DRUD     -2.19270      0.400000           0   0.00000       0.00000    
     18807 BUTH     218      BUTH     C4       CD2O3A    2.72690       11.6110           0  -1.26130       1.05430    
     18808 BUTH     218      BUTH     DC4      DRUD     -1.94890      0.400000           0   0.00000       0.00000    
     18809 BUTH     218      BUTH     O1       OD2C1A    1.46540       15.5994           0 -0.713100      0.569800    
     18810 BUTH     218      BUTH     DO1      DRUD     -1.46540      0.400000           0   0.00000       0.00000    
     18811 BUTH     218      BUTH     O2       OD31A     1.58240       15.5990           0 -0.831500      0.749400    
     18812 BUTH     218      BUTH     DO2      DRUD     -1.58240      0.400000           0   0.00000       0.00000    
     18813 BUTH     218      BUTH     H1       HDA3A    0.900000E-01   1.00800           0   0.00000       0.00000    
     18814 BUTH     218      BUTH     H2       HDA3A    0.900000E-01   1.00800           0   0.00000       0.00000    
     18815 BUTH     218      BUTH     H3       HDA3A    0.900000E-01   1.00800           0   0.00000       0.00000    
     18816 BUTH     218      BUTH     H4       HDA2A    0.900000E-01   1.00800           0   0.00000       0.00000    
     18817 BUTH     218      BUTH     H5       HDA2A    0.900000E-01   1.00800           0   0.00000       0.00000    
     18818 BUTH     218      BUTH     H6       HDA2A    0.900000E-01   1.00800           0   0.00000       0.00000    
     18819 BUTH     218      BUTH     H7       HDA2A    0.900000E-01   1.00800           0   0.00000       0.00000    
     18820 BUTH     218      BUTH     H8       HDP1A    0.430000       1.00800           0   0.00000       0.00000    
     18821 BUTH     218      BUTH     H9       DUMH      0.00000       1.00800           0   0.00000       0.00000    
     18822 BUTH     218      BUTH     LPO11    LPDO1   -0.287000       0.00000          -1   0.00000       0.00000    
     18823 BUTH     218      BUTH     LPO12    LPDO1   -0.288000       0.00000          -1   0.00000       0.00000    
     18824 BUTH     218      BUTH     LPO21    LPD     -0.302000       0.00000          -1   0.00000       0.00000    
     18825 BUTH     218      BUTH     LPO22    LPD     -0.303000       0.00000          -1   0.00000       0.00000    
     18826 BUTH     219      BUTH     C1       CD33A     2.05990       11.6110           0  -1.81190       1.18670    
     18827 BUTH     219      BUTH     DC1      DRUD     -2.33590      0.400000           0   0.00000       0.00000    
     18828 BUTH     219      BUTH     C2       CD32A     2.02070       11.6110           0  -1.59660       1.16930    
     18829 BUTH     219      BUTH     DC2      DRUD     -2.19270      0.400000           0   0.00000       0.00000    
     18830 BUTH     219      BUTH     C3       CD32A     1.98270       11.6110           0  -1.59660       1.16930    
     18831 BUTH     219      BUTH     DC3      DRUD     -2.19270      0.400000           0   0.00000       0.00000    
     18832 BUTH     219      BUTH     C4       CD2O3A    2.72690       11.6110           0  -1.26130       1.05430    
     18833 BUTH     219      BUTH     DC4      DRUD     -1.94890      0.400000           0   0.00000       0.00000    
     18834 BUTH     219      BUTH     O1       OD2C1A    1.46540       15.5994           0 -0.713100      0.569800    
     18835 BUTH     219      BUTH     DO1      DRUD     -1.46540      0.400000           0   0.00000       0.00000    
     18836 BUTH     219      BUTH     O2       OD31A     1.58240       15.5990           0 -0.831500      0.749400    
     18837 BUTH     219      BUTH     DO2      DRUD     -1.58240      0.400000           0   0.00000       0.00000    
     18838 BUTH     219      BUTH     H1       HDA3A    0.900000E-01   1.00800           0   0.00000       0.00000    
     18839 BUTH     219      BUTH     H2       HDA3A    0.900000E-01   1.00800           0   0.00000       0.00000    
     18840 BUTH     219      BUTH     H3       HDA3A    0.900000E-01   1.00800           0   0.00000       0.00000    
     18841 BUTH     219      BUTH     H4       HDA2A    0.900000E-01   1.00800           0   0.00000       0.00000    
     18842 BUTH     219      BUTH     H5       HDA2A    0.900000E-01   1.00800           0   0.00000       0.00000    
     18843 BUTH     219      BUTH     H6       HDA2A    0.900000E-01   1.00800           0   0.00000       0.00000    
     18844 BUTH     219      BUTH     H7       HDA2A    0.900000E-01   1.00800           0   0.00000       0.00000    
     18845 BUTH     219      BUTH     H8       HDP1A    0.430000       1.00800           0   0.00000       0.00000    
     18846 BUTH     219      BUTH     H9       DUMH      0.00000       1.00800           0   0.00000       0.00000    
     18847 BUTH     219      BUTH     LPO11    LPDO1   -0.287000       0.00000          -1   0.00000       0.00000    
     18848 BUTH     219      BUTH     LPO12    LPDO1   -0.288000       0.00000          -1   0.00000       0.00000    
     18849 BUTH     219      BUTH     LPO21    LPD     -0.302000       0.00000          -1   0.00000       0.00000    
     18850 BUTH     219      BUTH     LPO22    LPD     -0.303000       0.00000          -1   0.00000       0.00000    
     18851 BUTH     220      BUTH     C1       CD33A     2.05990       11.6110           0  -1.81190       1.18670    
     18852 BUTH     220      BUTH     DC1      DRUD     -2.33590      0.400000           0   0.00000       0.00000    
     18853 BUTH     220      BUTH     C2       CD32A     2.02070       11.6110           0  -1.59660       1.16930    
     18854 BUTH     220      BUTH     DC2      DRUD     -2.19270      0.400000           0   0.00000       0.00000    
     18855 BUTH     220      BUTH     C3       CD32A     1.98270       11.6110           0  -1.59660       1.16930    
     18856 BUTH     220      BUTH     DC3      DRUD     -2.19270      0.400000           0   0.00000       0.00000    
     18857 BUTH     220      BUTH     C4       CD2O3A    2.72690       11.6110           0  -1.26130       1.05430    
     18858 BUTH     220      BUTH     DC4      DRUD     -1.94890      0.400000           0   0.00000       0.00000    
     18859 BUTH     220      BUTH     O1       OD2C1A    1.46540       15.5994           0 -0.713100      0.569800    
     18860 BUTH     220      BUTH     DO1      DRUD     -1.46540      0.400000           0   0.00000       0.00000    
     18861 BUTH     220      BUTH     O2       OD31A     1.58240       15.5990           0 -0.831500      0.749400    
     18862 BUTH     220      BUTH     DO2      DRUD     -1.58240      0.400000           0   0.00000       0.00000    
     18863 BUTH     220      BUTH     H1       HDA3A    0.900000E-01   1.00800           0   0.00000       0.00000    
     18864 BUTH     220      BUTH     H2       HDA3A    0.900000E-01   1.00800           0   0.00000       0.00000    
     18865 BUTH     220      BUTH     H3       HDA3A    0.900000E-01   1.00800           0   0.00000       0.00000    
     18866 BUTH     220      BUTH     H4       HDA2A    0.900000E-01   1.00800           0   0.00000       0.00000    
     18867 BUTH     220      BUTH     H5       HDA2A    0.900000E-01   1.00800           0   0.00000       0.00000    
     18868 BUTH     220      BUTH     H6       HDA2A    0.900000E-01   1.00800           0   0.00000       0.00000    
     18869 BUTH     220      BUTH     H7       HDA2A    0.900000E-01   1.00800           0   0.00000       0.00000    
     18870 BUTH     220      BUTH     H8       HDP1A    0.430000       1.00800           0   0.00000       0.00000    
     18871 BUTH     220      BUTH     H9       DUMH      0.00000       1.00800           0   0.00000       0.00000    
     18872 BUTH     220      BUTH     LPO11    LPDO1   -0.287000       0.00000          -1   0.00000       0.00000    
     18873 BUTH     220      BUTH     LPO12    LPDO1   -0.288000       0.00000          -1   0.00000       0.00000    
     18874 BUTH     220      BUTH     LPO21    LPD     -0.302000       0.00000          -1   0.00000       0.00000    
     18875 BUTH     220      BUTH     LPO22    LPD     -0.303000       0.00000          -1   0.00000       0.00000    
     18876 BUTH     221      BUTH     C1       CD33A     2.05990       11.6110           0  -1.81190       1.18670    
     18877 BUTH     221      BUTH     DC1      DRUD     -2.33590      0.400000           0   0.00000       0.00000    
     18878 BUTH     221      BUTH     C2       CD32A     2.02070       11.6110           0  -1.59660       1.16930    
     18879 BUTH     221      BUTH     DC2      DRUD     -2.19270      0.400000           0   0.00000       0.00000    
     18880 BUTH     221      BUTH     C3       CD32A     1.98270       11.6110           0  -1.59660       1.16930    
     18881 BUTH     221      BUTH     DC3      DRUD     -2.19270      0.400000           0   0.00000       0.00000    
     18882 BUTH     221      BUTH     C4       CD2O3A    2.72690       11.6110           0  -1.26130       1.05430    
     18883 BUTH     221      BUTH     DC4      DRUD     -1.94890      0.400000           0   0.00000       0.00000    
     18884 BUTH     221      BUTH     O1       OD2C1A    1.46540       15.5994           0 -0.713100      0.569800    
     18885 BUTH     221      BUTH     DO1      DRUD     -1.46540      0.400000           0   0.00000       0.00000    
     18886 BUTH     221      BUTH     O2       OD31A     1.58240       15.5990           0 -0.831500      0.749400    
     18887 BUTH     221      BUTH     DO2      DRUD     -1.58240      0.400000           0   0.00000       0.00000    
     18888 BUTH     221      BUTH     H1       HDA3A    0.900000E-01   1.00800           0   0.00000       0.00000    
     18889 BUTH     221      BUTH     H2       HDA3A    0.900000E-01   1.00800           0   0.00000       0.00000    
     18890 BUTH     221      BUTH     H3       HDA3A    0.900000E-01   1.00800           0   0.00000       0.00000    
     18891 BUTH     221      BUTH     H4       HDA2A    0.900000E-01   1.00800           0   0.00000       0.00000    
     18892 BUTH     221      BUTH     H5       HDA2A    0.900000E-01   1.00800           0   0.00000       0.00000    
     18893 BUTH     221      BUTH     H6       HDA2A    0.900000E-01   1.00800           0   0.00000       0.00000    
     18894 BUTH     221      BUTH     H7       HDA2A    0.900000E-01   1.00800           0   0.00000       0.00000    
     18895 BUTH     221      BUTH     H8       HDP1A    0.430000       1.00800           0   0.00000       0.00000    
     18896 BUTH     221      BUTH     H9       DUMH      0.00000       1.00800           0   0.00000       0.00000    
     18897 BUTH     221      BUTH     LPO11    LPDO1   -0.287000       0.00000          -1   0.00000       0.00000    
     18898 BUTH     221      BUTH     LPO12    LPDO1   -0.288000       0.00000          -1   0.00000       0.00000    
     18899 BUTH     221      BUTH     LPO21    LPD     -0.302000       0.00000          -1   0.00000       0.00000    
     18900 BUTH     221      BUTH     LPO22    LPD     -0.303000       0.00000          -1   0.00000       0.00000    
     18901 BUTH     222      BUTH     C1       CD33A     2.05990       11.6110           0  -1.81190       1.18670    
     18902 BUTH     222      BUTH     DC1      DRUD     -2.33590      0.400000           0   0.00000       0.00000    
     18903 BUTH     222      BUTH     C2       CD32A     2.02070       11.6110           0  -1.59660       1.16930    
     18904 BUTH     222      BUTH     DC2      DRUD     -2.19270      0.400000           0   0.00000       0.00000    
     18905 BUTH     222      BUTH     C3       CD32A     1.98270       11.6110           0  -1.59660       1.16930    
     18906 BUTH     222      BUTH     DC3      DRUD     -2.19270      0.400000           0   0.00000       0.00000    
     18907 BUTH     222      BUTH     C4       CD2O3A    2.72690       11.6110           0  -1.26130       1.05430    
     18908 BUTH     222      BUTH     DC4      DRUD     -1.94890      0.400000           0   0.00000       0.00000    
     18909 BUTH     222      BUTH     O1       OD2C1A    1.46540       15.5994           0 -0.713100      0.569800    
     18910 BUTH     222      BUTH     DO1      DRUD     -1.46540      0.400000           0   0.00000       0.00000    
     18911 BUTH     222      BUTH     O2       OD31A     1.58240       15.5990           0 -0.831500      0.749400    
     18912 BUTH     222      BUTH     DO2      DRUD     -1.58240      0.400000           0   0.00000       0.00000    
     18913 BUTH     222      BUTH     H1       HDA3A    0.900000E-01   1.00800           0   0.00000       0.00000    
     18914 BUTH     222      BUTH     H2       HDA3A    0.900000E-01   1.00800           0   0.00000       0.00000    
     18915 BUTH     222      BUTH     H3       HDA3A    0.900000E-01   1.00800           0   0.00000       0.00000    
     18916 BUTH     222      BUTH     H4       HDA2A    0.900000E-01   1.00800           0   0.00000       0.00000    
     18917 BUTH     222      BUTH     H5       HDA2A    0.900000E-01   1.00800           0   0.00000       0.00000    
     18918 BUTH     222      BUTH     H6       HDA2A    0.900000E-01   1.00800           0   0.00000       0.00000    
     18919 BUTH     222      BUTH     H7       HDA2A    0.900000E-01   1.00800           0   0.00000       0.00000    
     18920 BUTH     222      BUTH     H8       HDP1A    0.430000       1.00800           0   0.00000       0.00000    
     18921 BUTH     222      BUTH     H9       DUMH      0.00000       1.00800           0   0.00000       0.00000    
     18922 BUTH     222      BUTH     LPO11    LPDO1   -0.287000       0.00000          -1   0.00000       0.00000    
     18923 BUTH     222      BUTH     LPO12    LPDO1   -0.288000       0.00000          -1   0.00000       0.00000    
     18924 BUTH     222      BUTH     LPO21    LPD     -0.302000       0.00000          -1   0.00000       0.00000    
     18925 BUTH     222      BUTH     LPO22    LPD     -0.303000       0.00000          -1   0.00000       0.00000    
     18926 BUTH     223      BUTH     C1       CD33A     2.05990       11.6110           0  -1.81190       1.18670    
     18927 BUTH     223      BUTH     DC1      DRUD     -2.33590      0.400000           0   0.00000       0.00000    
     18928 BUTH     223      BUTH     C2       CD32A     2.02070       11.6110           0  -1.59660       1.16930    
     18929 BUTH     223      BUTH     DC2      DRUD     -2.19270      0.400000           0   0.00000       0.00000    
     18930 BUTH     223      BUTH     C3       CD32A     1.98270       11.6110           0  -1.59660       1.16930    
     18931 BUTH     223      BUTH     DC3      DRUD     -2.19270      0.400000           0   0.00000       0.00000    
     18932 BUTH     223      BUTH     C4       CD2O3A    2.72690       11.6110           0  -1.26130       1.05430    
     18933 BUTH     223      BUTH     DC4      DRUD     -1.94890      0.400000           0   0.00000       0.00000    
     18934 BUTH     223      BUTH     O1       OD2C1A    1.46540       15.5994           0 -0.713100      0.569800    
     18935 BUTH     223      BUTH     DO1      DRUD     -1.46540      0.400000           0   0.00000       0.00000    
     18936 BUTH     223      BUTH     O2       OD31A     1.58240       15.5990           0 -0.831500      0.749400    
     18937 BUTH     223      BUTH     DO2      DRUD     -1.58240      0.400000           0   0.00000       0.00000    
     18938 BUTH     223      BUTH     H1       HDA3A    0.900000E-01   1.00800           0   0.00000       0.00000    
     18939 BUTH     223      BUTH     H2       HDA3A    0.900000E-01   1.00800           0   0.00000       0.00000    
     18940 BUTH     223      BUTH     H3       HDA3A    0.900000E-01   1.00800           0   0.00000       0.00000    
     18941 BUTH     223      BUTH     H4       HDA2A    0.900000E-01   1.00800           0   0.00000       0.00000    
     18942 BUTH     223      BUTH     H5       HDA2A    0.900000E-01   1.00800           0   0.00000       0.00000    
     18943 BUTH     223      BUTH     H6       HDA2A    0.900000E-01   1.00800           0   0.00000       0.00000    
     18944 BUTH     223      BUTH     H7       HDA2A    0.900000E-01   1.00800           0   0.00000       0.00000    
     18945 BUTH     223      BUTH     H8       HDP1A    0.430000       1.00800           0   0.00000       0.00000    
     18946 BUTH     223      BUTH     H9       DUMH      0.00000       1.00800           0   0.00000       0.00000    
     18947 BUTH     223      BUTH     LPO11    LPDO1   -0.287000       0.00000          -1   0.00000       0.00000    
     18948 BUTH     223      BUTH     LPO12    LPDO1   -0.288000       0.00000          -1   0.00000       0.00000    
     18949 BUTH     223      BUTH     LPO21    LPD     -0.302000       0.00000          -1   0.00000       0.00000    
     18950 BUTH     223      BUTH     LPO22    LPD     -0.303000       0.00000          -1   0.00000       0.00000    
     18951 BUTH     224      BUTH     C1       CD33A     2.05990       11.6110           0  -1.81190       1.18670    
     18952 BUTH     224      BUTH     DC1      DRUD     -2.33590      0.400000           0   0.00000       0.00000    
     18953 BUTH     224      BUTH     C2       CD32A     2.02070       11.6110           0  -1.59660       1.16930    
     18954 BUTH     224      BUTH     DC2      DRUD     -2.19270      0.400000           0   0.00000       0.00000    
     18955 BUTH     224      BUTH     C3       CD32A     1.98270       11.6110           0  -1.59660       1.16930    
     18956 BUTH     224      BUTH     DC3      DRUD     -2.19270      0.400000           0   0.00000       0.00000    
     18957 BUTH     224      BUTH     C4       CD2O3A    2.72690       11.6110           0  -1.26130       1.05430    
     18958 BUTH     224      BUTH     DC4      DRUD     -1.94890      0.400000           0   0.00000       0.00000    
     18959 BUTH     224      BUTH     O1       OD2C1A    1.46540       15.5994           0 -0.713100      0.569800    
     18960 BUTH     224      BUTH     DO1      DRUD     -1.46540      0.400000           0   0.00000       0.00000    
     18961 BUTH     224      BUTH     O2       OD31A     1.58240       15.5990           0 -0.831500      0.749400    
     18962 BUTH     224      BUTH     DO2      DRUD     -1.58240      0.400000           0   0.00000       0.00000    
     18963 BUTH     224      BUTH     H1       HDA3A    0.900000E-01   1.00800           0   0.00000       0.00000    
     18964 BUTH     224      BUTH     H2       HDA3A    0.900000E-01   1.00800           0   0.00000       0.00000    
     18965 BUTH     224      BUTH     H3       HDA3A    0.900000E-01   1.00800           0   0.00000       0.00000    
     18966 BUTH     224      BUTH     H4       HDA2A    0.900000E-01   1.00800           0   0.00000       0.00000    
     18967 BUTH     224      BUTH     H5       HDA2A    0.900000E-01   1.00800           0   0.00000       0.00000    
     18968 BUTH     224      BUTH     H6       HDA2A    0.900000E-01   1.00800           0   0.00000       0.00000    
     18969 BUTH     224      BUTH     H7       HDA2A    0.900000E-01   1.00800           0   0.00000       0.00000    
     18970 BUTH     224      BUTH     H8       HDP1A    0.430000       1.00800           0   0.00000       0.00000    
     18971 BUTH     224      BUTH     H9       DUMH      0.00000       1.00800           0   0.00000       0.00000    
     18972 BUTH     224      BUTH     LPO11    LPDO1   -0.287000       0.00000          -1   0.00000       0.00000    
     18973 BUTH     224      BUTH     LPO12    LPDO1   -0.288000       0.00000          -1   0.00000       0.00000    
     18974 BUTH     224      BUTH     LPO21    LPD     -0.302000       0.00000          -1   0.00000       0.00000    
     18975 BUTH     224      BUTH     LPO22    LPD     -0.303000       0.00000          -1   0.00000       0.00000    
     18976 BUTH     225      BUTH     C1       CD33A     2.05990       11.6110           0  -1.81190       1.18670    
     18977 BUTH     225      BUTH     DC1      DRUD     -2.33590      0.400000           0   0.00000       0.00000    
     18978 BUTH     225      BUTH     C2       CD32A     2.02070       11.6110           0  -1.59660       1.16930    
     18979 BUTH     225      BUTH     DC2      DRUD     -2.19270      0.400000           0   0.00000       0.00000    
     18980 BUTH     225      BUTH     C3       CD32A     1.98270       11.6110           0  -1.59660       1.16930    
     18981 BUTH     225      BUTH     DC3      DRUD     -2.19270      0.400000           0   0.00000       0.00000    
     18982 BUTH     225      BUTH     C4       CD2O3A    2.72690       11.6110           0  -1.26130       1.05430    
     18983 BUTH     225      BUTH     DC4      DRUD     -1.94890      0.400000           0   0.00000       0.00000    
     18984 BUTH     225      BUTH     O1       OD2C1A    1.46540       15.5994           0 -0.713100      0.569800    
     18985 BUTH     225      BUTH     DO1      DRUD     -1.46540      0.400000           0   0.00000       0.00000    
     18986 BUTH     225      BUTH     O2       OD31A     1.58240       15.5990           0 -0.831500      0.749400    
     18987 BUTH     225      BUTH     DO2      DRUD     -1.58240      0.400000           0   0.00000       0.00000    
     18988 BUTH     225      BUTH     H1       HDA3A    0.900000E-01   1.00800           0   0.00000       0.00000    
     18989 BUTH     225      BUTH     H2       HDA3A    0.900000E-01   1.00800           0   0.00000       0.00000    
     18990 BUTH     225      BUTH     H3       HDA3A    0.900000E-01   1.00800           0   0.00000       0.00000    
     18991 BUTH     225      BUTH     H4       HDA2A    0.900000E-01   1.00800           0   0.00000       0.00000    
     18992 BUTH     225      BUTH     H5       HDA2A    0.900000E-01   1.00800           0   0.00000       0.00000    
     18993 BUTH     225      BUTH     H6       HDA2A    0.900000E-01   1.00800           0   0.00000       0.00000    
     18994 BUTH     225      BUTH     H7       HDA2A    0.900000E-01   1.00800           0   0.00000       0.00000    
     18995 BUTH     225      BUTH     H8       HDP1A    0.430000       1.00800           0   0.00000       0.00000    
     18996 BUTH     225      BUTH     H9       DUMH      0.00000       1.00800           0   0.00000       0.00000    
     18997 BUTH     225      BUTH     LPO11    LPDO1   -0.287000       0.00000          -1   0.00000       0.00000    
     18998 BUTH     225      BUTH     LPO12    LPDO1   -0.288000       0.00000          -1   0.00000       0.00000    
     18999 BUTH     225      BUTH     LPO21    LPD     -0.302000       0.00000          -1   0.00000       0.00000    
     19000 BUTH     225      BUTH     LPO22    LPD     -0.303000       0.00000          -1   0.00000       0.00000    
     19001 BUTH     226      BUTH     C1       CD33A     2.05990       11.6110           0  -1.81190       1.18670    
     19002 BUTH     226      BUTH     DC1      DRUD     -2.33590      0.400000           0   0.00000       0.00000    
     19003 BUTH     226      BUTH     C2       CD32A     2.02070       11.6110           0  -1.59660       1.16930    
     19004 BUTH     226      BUTH     DC2      DRUD     -2.19270      0.400000           0   0.00000       0.00000    
     19005 BUTH     226      BUTH     C3       CD32A     1.98270       11.6110           0  -1.59660       1.16930    
     19006 BUTH     226      BUTH     DC3      DRUD     -2.19270      0.400000           0   0.00000       0.00000    
     19007 BUTH     226      BUTH     C4       CD2O3A    2.72690       11.6110           0  -1.26130       1.05430    
     19008 BUTH     226      BUTH     DC4      DRUD     -1.94890      0.400000           0   0.00000       0.00000    
     19009 BUTH     226      BUTH     O1       OD2C1A    1.46540       15.5994           0 -0.713100      0.569800    
     19010 BUTH     226      BUTH     DO1      DRUD     -1.46540      0.400000           0   0.00000       0.00000    
     19011 BUTH     226      BUTH     O2       OD31A     1.58240       15.5990           0 -0.831500      0.749400    
     19012 BUTH     226      BUTH     DO2      DRUD     -1.58240      0.400000           0   0.00000       0.00000    
     19013 BUTH     226      BUTH     H1       HDA3A    0.900000E-01   1.00800           0   0.00000       0.00000    
     19014 BUTH     226      BUTH     H2       HDA3A    0.900000E-01   1.00800           0   0.00000       0.00000    
     19015 BUTH     226      BUTH     H3       HDA3A    0.900000E-01   1.00800           0   0.00000       0.00000    
     19016 BUTH     226      BUTH     H4       HDA2A    0.900000E-01   1.00800           0   0.00000       0.00000    
     19017 BUTH     226      BUTH     H5       HDA2A    0.900000E-01   1.00800           0   0.00000       0.00000    
     19018 BUTH     226      BUTH     H6       HDA2A    0.900000E-01   1.00800           0   0.00000       0.00000    
     19019 BUTH     226      BUTH     H7       HDA2A    0.900000E-01   1.00800           0   0.00000       0.00000    
     19020 BUTH     226      BUTH     H8       HDP1A    0.430000       1.00800           0   0.00000       0.00000    
     19021 BUTH     226      BUTH     H9       DUMH      0.00000       1.00800           0   0.00000       0.00000    
     19022 BUTH     226      BUTH     LPO11    LPDO1   -0.287000       0.00000          -1   0.00000       0.00000    
     19023 BUTH     226      BUTH     LPO12    LPDO1   -0.288000       0.00000          -1   0.00000       0.00000    
     19024 BUTH     226      BUTH     LPO21    LPD     -0.302000       0.00000          -1   0.00000       0.00000    
     19025 BUTH     226      BUTH     LPO22    LPD     -0.303000       0.00000          -1   0.00000       0.00000    
     19026 BUTH     227      BUTH     C1       CD33A     2.05990       11.6110           0  -1.81190       1.18670    
     19027 BUTH     227      BUTH     DC1      DRUD     -2.33590      0.400000           0   0.00000       0.00000    
     19028 BUTH     227      BUTH     C2       CD32A     2.02070       11.6110           0  -1.59660       1.16930    
     19029 BUTH     227      BUTH     DC2      DRUD     -2.19270      0.400000           0   0.00000       0.00000    
     19030 BUTH     227      BUTH     C3       CD32A     1.98270       11.6110           0  -1.59660       1.16930    
     19031 BUTH     227      BUTH     DC3      DRUD     -2.19270      0.400000           0   0.00000       0.00000    
     19032 BUTH     227      BUTH     C4       CD2O3A    2.72690       11.6110           0  -1.26130       1.05430    
     19033 BUTH     227      BUTH     DC4      DRUD     -1.94890      0.400000           0   0.00000       0.00000    
     19034 BUTH     227      BUTH     O1       OD2C1A    1.46540       15.5994           0 -0.713100      0.569800    
     19035 BUTH     227      BUTH     DO1      DRUD     -1.46540      0.400000           0   0.00000       0.00000    
     19036 BUTH     227      BUTH     O2       OD31A     1.58240       15.5990           0 -0.831500      0.749400    
     19037 BUTH     227      BUTH     DO2      DRUD     -1.58240      0.400000           0   0.00000       0.00000    
     19038 BUTH     227      BUTH     H1       HDA3A    0.900000E-01   1.00800           0   0.00000       0.00000    
     19039 BUTH     227      BUTH     H2       HDA3A    0.900000E-01   1.00800           0   0.00000       0.00000    
     19040 BUTH     227      BUTH     H3       HDA3A    0.900000E-01   1.00800           0   0.00000       0.00000    
     19041 BUTH     227      BUTH     H4       HDA2A    0.900000E-01   1.00800           0   0.00000       0.00000    
     19042 BUTH     227      BUTH     H5       HDA2A    0.900000E-01   1.00800           0   0.00000       0.00000    
     19043 BUTH     227      BUTH     H6       HDA2A    0.900000E-01   1.00800           0   0.00000       0.00000    
     19044 BUTH     227      BUTH     H7       HDA2A    0.900000E-01   1.00800           0   0.00000       0.00000    
     19045 BUTH     227      BUTH     H8       HDP1A    0.430000       1.00800           0   0.00000       0.00000    
     19046 BUTH     227      BUTH     H9       DUMH      0.00000       1.00800           0   0.00000       0.00000    
     19047 BUTH     227      BUTH     LPO11    LPDO1   -0.287000       0.00000          -1   0.00000       0.00000    
     19048 BUTH     227      BUTH     LPO12    LPDO1   -0.288000       0.00000          -1   0.00000       0.00000    
     19049 BUTH     227      BUTH     LPO21    LPD     -0.302000       0.00000          -1   0.00000       0.00000    
     19050 BUTH     227      BUTH     LPO22    LPD     -0.303000       0.00000          -1   0.00000       0.00000    
     19051 BUTH     228      BUTH     C1       CD33A     2.05990       11.6110           0  -1.81190       1.18670    
     19052 BUTH     228      BUTH     DC1      DRUD     -2.33590      0.400000           0   0.00000       0.00000    
     19053 BUTH     228      BUTH     C2       CD32A     2.02070       11.6110           0  -1.59660       1.16930    
     19054 BUTH     228      BUTH     DC2      DRUD     -2.19270      0.400000           0   0.00000       0.00000    
     19055 BUTH     228      BUTH     C3       CD32A     1.98270       11.6110           0  -1.59660       1.16930    
     19056 BUTH     228      BUTH     DC3      DRUD     -2.19270      0.400000           0   0.00000       0.00000    
     19057 BUTH     228      BUTH     C4       CD2O3A    2.72690       11.6110           0  -1.26130       1.05430    
     19058 BUTH     228      BUTH     DC4      DRUD     -1.94890      0.400000           0   0.00000       0.00000    
     19059 BUTH     228      BUTH     O1       OD2C1A    1.46540       15.5994           0 -0.713100      0.569800    
     19060 BUTH     228      BUTH     DO1      DRUD     -1.46540      0.400000           0   0.00000       0.00000    
     19061 BUTH     228      BUTH     O2       OD31A     1.58240       15.5990           0 -0.831500      0.749400    
     19062 BUTH     228      BUTH     DO2      DRUD     -1.58240      0.400000           0   0.00000       0.00000    
     19063 BUTH     228      BUTH     H1       HDA3A    0.900000E-01   1.00800           0   0.00000       0.00000    
     19064 BUTH     228      BUTH     H2       HDA3A    0.900000E-01   1.00800           0   0.00000       0.00000    
     19065 BUTH     228      BUTH     H3       HDA3A    0.900000E-01   1.00800           0   0.00000       0.00000    
     19066 BUTH     228      BUTH     H4       HDA2A    0.900000E-01   1.00800           0   0.00000       0.00000    
     19067 BUTH     228      BUTH     H5       HDA2A    0.900000E-01   1.00800           0   0.00000       0.00000    
     19068 BUTH     228      BUTH     H6       HDA2A    0.900000E-01   1.00800           0   0.00000       0.00000    
     19069 BUTH     228      BUTH     H7       HDA2A    0.900000E-01   1.00800           0   0.00000       0.00000    
     19070 BUTH     228      BUTH     H8       HDP1A    0.430000       1.00800           0   0.00000       0.00000    
     19071 BUTH     228      BUTH     H9       DUMH      0.00000       1.00800           0   0.00000       0.00000    
     19072 BUTH     228      BUTH     LPO11    LPDO1   -0.287000       0.00000          -1   0.00000       0.00000    
     19073 BUTH     228      BUTH     LPO12    LPDO1   -0.288000       0.00000          -1   0.00000       0.00000    
     19074 BUTH     228      BUTH     LPO21    LPD     -0.302000       0.00000          -1   0.00000       0.00000    
     19075 BUTH     228      BUTH     LPO22    LPD     -0.303000       0.00000          -1   0.00000       0.00000    
     19076 BUTH     229      BUTH     C1       CD33A     2.05990       11.6110           0  -1.81190       1.18670    
     19077 BUTH     229      BUTH     DC1      DRUD     -2.33590      0.400000           0   0.00000       0.00000    
     19078 BUTH     229      BUTH     C2       CD32A     2.02070       11.6110           0  -1.59660       1.16930    
     19079 BUTH     229      BUTH     DC2      DRUD     -2.19270      0.400000           0   0.00000       0.00000    
     19080 BUTH     229      BUTH     C3       CD32A     1.98270       11.6110           0  -1.59660       1.16930    
     19081 BUTH     229      BUTH     DC3      DRUD     -2.19270      0.400000           0   0.00000       0.00000    
     19082 BUTH     229      BUTH     C4       CD2O3A    2.72690       11.6110           0  -1.26130       1.05430    
     19083 BUTH     229      BUTH     DC4      DRUD     -1.94890      0.400000           0   0.00000       0.00000    
     19084 BUTH     229      BUTH     O1       OD2C1A    1.46540       15.5994           0 -0.713100      0.569800    
     19085 BUTH     229      BUTH     DO1      DRUD     -1.46540      0.400000           0   0.00000       0.00000    
     19086 BUTH     229      BUTH     O2       OD31A     1.58240       15.5990           0 -0.831500      0.749400    
     19087 BUTH     229      BUTH     DO2      DRUD     -1.58240      0.400000           0   0.00000       0.00000    
     19088 BUTH     229      BUTH     H1       HDA3A    0.900000E-01   1.00800           0   0.00000       0.00000    
     19089 BUTH     229      BUTH     H2       HDA3A    0.900000E-01   1.00800           0   0.00000       0.00000    
     19090 BUTH     229      BUTH     H3       HDA3A    0.900000E-01   1.00800           0   0.00000       0.00000    
     19091 BUTH     229      BUTH     H4       HDA2A    0.900000E-01   1.00800           0   0.00000       0.00000    
     19092 BUTH     229      BUTH     H5       HDA2A    0.900000E-01   1.00800           0   0.00000       0.00000    
     19093 BUTH     229      BUTH     H6       HDA2A    0.900000E-01   1.00800           0   0.00000       0.00000    
     19094 BUTH     229      BUTH     H7       HDA2A    0.900000E-01   1.00800           0   0.00000       0.00000    
     19095 BUTH     229      BUTH     H8       HDP1A    0.430000       1.00800           0   0.00000       0.00000    
     19096 BUTH     229      BUTH     H9       DUMH      0.00000       1.00800           0   0.00000       0.00000    
     19097 BUTH     229      BUTH     LPO11    LPDO1   -0.287000       0.00000          -1   0.00000       0.00000    
     19098 BUTH     229      BUTH     LPO12    LPDO1   -0.288000       0.00000          -1   0.00000       0.00000    
     19099 BUTH     229      BUTH     LPO21    LPD     -0.302000       0.00000          -1   0.00000       0.00000    
     19100 BUTH     229      BUTH     LPO22    LPD     -0.303000       0.00000          -1   0.00000       0.00000    
     19101 BUTH     230      BUTH     C1       CD33A     2.05990       11.6110           0  -1.81190       1.18670    
     19102 BUTH     230      BUTH     DC1      DRUD     -2.33590      0.400000           0   0.00000       0.00000    
     19103 BUTH     230      BUTH     C2       CD32A     2.02070       11.6110           0  -1.59660       1.16930    
     19104 BUTH     230      BUTH     DC2      DRUD     -2.19270      0.400000           0   0.00000       0.00000    
     19105 BUTH     230      BUTH     C3       CD32A     1.98270       11.6110           0  -1.59660       1.16930    
     19106 BUTH     230      BUTH     DC3      DRUD     -2.19270      0.400000           0   0.00000       0.00000    
     19107 BUTH     230      BUTH     C4       CD2O3A    2.72690       11.6110           0  -1.26130       1.05430    
     19108 BUTH     230      BUTH     DC4      DRUD     -1.94890      0.400000           0   0.00000       0.00000    
     19109 BUTH     230      BUTH     O1       OD2C1A    1.46540       15.5994           0 -0.713100      0.569800    
     19110 BUTH     230      BUTH     DO1      DRUD     -1.46540      0.400000           0   0.00000       0.00000    
     19111 BUTH     230      BUTH     O2       OD31A     1.58240       15.5990           0 -0.831500      0.749400    
     19112 BUTH     230      BUTH     DO2      DRUD     -1.58240      0.400000           0   0.00000       0.00000    
     19113 BUTH     230      BUTH     H1       HDA3A    0.900000E-01   1.00800           0   0.00000       0.00000    
     19114 BUTH     230      BUTH     H2       HDA3A    0.900000E-01   1.00800           0   0.00000       0.00000    
     19115 BUTH     230      BUTH     H3       HDA3A    0.900000E-01   1.00800           0   0.00000       0.00000    
     19116 BUTH     230      BUTH     H4       HDA2A    0.900000E-01   1.00800           0   0.00000       0.00000    
     19117 BUTH     230      BUTH     H5       HDA2A    0.900000E-01   1.00800           0   0.00000       0.00000    
     19118 BUTH     230      BUTH     H6       HDA2A    0.900000E-01   1.00800           0   0.00000       0.00000    
     19119 BUTH     230      BUTH     H7       HDA2A    0.900000E-01   1.00800           0   0.00000       0.00000    
     19120 BUTH     230      BUTH     H8       HDP1A    0.430000       1.00800           0   0.00000       0.00000    
     19121 BUTH     230      BUTH     H9       DUMH      0.00000       1.00800           0   0.00000       0.00000    
     19122 BUTH     230      BUTH     LPO11    LPDO1   -0.287000       0.00000          -1   0.00000       0.00000    
     19123 BUTH     230      BUTH     LPO12    LPDO1   -0.288000       0.00000          -1   0.00000       0.00000    
     19124 BUTH     230      BUTH     LPO21    LPD     -0.302000       0.00000          -1   0.00000       0.00000    
     19125 BUTH     230      BUTH     LPO22    LPD     -0.303000       0.00000          -1   0.00000       0.00000    
     19126 BUTH     231      BUTH     C1       CD33A     2.05990       11.6110           0  -1.81190       1.18670    
     19127 BUTH     231      BUTH     DC1      DRUD     -2.33590      0.400000           0   0.00000       0.00000    
     19128 BUTH     231      BUTH     C2       CD32A     2.02070       11.6110           0  -1.59660       1.16930    
     19129 BUTH     231      BUTH     DC2      DRUD     -2.19270      0.400000           0   0.00000       0.00000    
     19130 BUTH     231      BUTH     C3       CD32A     1.98270       11.6110           0  -1.59660       1.16930    
     19131 BUTH     231      BUTH     DC3      DRUD     -2.19270      0.400000           0   0.00000       0.00000    
     19132 BUTH     231      BUTH     C4       CD2O3A    2.72690       11.6110           0  -1.26130       1.05430    
     19133 BUTH     231      BUTH     DC4      DRUD     -1.94890      0.400000           0   0.00000       0.00000    
     19134 BUTH     231      BUTH     O1       OD2C1A    1.46540       15.5994           0 -0.713100      0.569800    
     19135 BUTH     231      BUTH     DO1      DRUD     -1.46540      0.400000           0   0.00000       0.00000    
     19136 BUTH     231      BUTH     O2       OD31A     1.58240       15.5990           0 -0.831500      0.749400    
     19137 BUTH     231      BUTH     DO2      DRUD     -1.58240      0.400000           0   0.00000       0.00000    
     19138 BUTH     231      BUTH     H1       HDA3A    0.900000E-01   1.00800           0   0.00000       0.00000    
     19139 BUTH     231      BUTH     H2       HDA3A    0.900000E-01   1.00800           0   0.00000       0.00000    
     19140 BUTH     231      BUTH     H3       HDA3A    0.900000E-01   1.00800           0   0.00000       0.00000    
     19141 BUTH     231      BUTH     H4       HDA2A    0.900000E-01   1.00800           0   0.00000       0.00000    
     19142 BUTH     231      BUTH     H5       HDA2A    0.900000E-01   1.00800           0   0.00000       0.00000    
     19143 BUTH     231      BUTH     H6       HDA2A    0.900000E-01   1.00800           0   0.00000       0.00000    
     19144 BUTH     231      BUTH     H7       HDA2A    0.900000E-01   1.00800           0   0.00000       0.00000    
     19145 BUTH     231      BUTH     H8       HDP1A    0.430000       1.00800           0   0.00000       0.00000    
     19146 BUTH     231      BUTH     H9       DUMH      0.00000       1.00800           0   0.00000       0.00000    
     19147 BUTH     231      BUTH     LPO11    LPDO1   -0.287000       0.00000          -1   0.00000       0.00000    
     19148 BUTH     231      BUTH     LPO12    LPDO1   -0.288000       0.00000          -1   0.00000       0.00000    
     19149 BUTH     231      BUTH     LPO21    LPD     -0.302000       0.00000          -1   0.00000       0.00000    
     19150 BUTH     231      BUTH     LPO22    LPD     -0.303000       0.00000          -1   0.00000       0.00000    
     19151 BUTH     232      BUTH     C1       CD33A     2.05990       11.6110           0  -1.81190       1.18670    
     19152 BUTH     232      BUTH     DC1      DRUD     -2.33590      0.400000           0   0.00000       0.00000    
     19153 BUTH     232      BUTH     C2       CD32A     2.02070       11.6110           0  -1.59660       1.16930    
     19154 BUTH     232      BUTH     DC2      DRUD     -2.19270      0.400000           0   0.00000       0.00000    
     19155 BUTH     232      BUTH     C3       CD32A     1.98270       11.6110           0  -1.59660       1.16930    
     19156 BUTH     232      BUTH     DC3      DRUD     -2.19270      0.400000           0   0.00000       0.00000    
     19157 BUTH     232      BUTH     C4       CD2O3A    2.72690       11.6110           0  -1.26130       1.05430    
     19158 BUTH     232      BUTH     DC4      DRUD     -1.94890      0.400000           0   0.00000       0.00000    
     19159 BUTH     232      BUTH     O1       OD2C1A    1.46540       15.5994           0 -0.713100      0.569800    
     19160 BUTH     232      BUTH     DO1      DRUD     -1.46540      0.400000           0   0.00000       0.00000    
     19161 BUTH     232      BUTH     O2       OD31A     1.58240       15.5990           0 -0.831500      0.749400    
     19162 BUTH     232      BUTH     DO2      DRUD     -1.58240      0.400000           0   0.00000       0.00000    
     19163 BUTH     232      BUTH     H1       HDA3A    0.900000E-01   1.00800           0   0.00000       0.00000    
     19164 BUTH     232      BUTH     H2       HDA3A    0.900000E-01   1.00800           0   0.00000       0.00000    
     19165 BUTH     232      BUTH     H3       HDA3A    0.900000E-01   1.00800           0   0.00000       0.00000    
     19166 BUTH     232      BUTH     H4       HDA2A    0.900000E-01   1.00800           0   0.00000       0.00000    
     19167 BUTH     232      BUTH     H5       HDA2A    0.900000E-01   1.00800           0   0.00000       0.00000    
     19168 BUTH     232      BUTH     H6       HDA2A    0.900000E-01   1.00800           0   0.00000       0.00000    
     19169 BUTH     232      BUTH     H7       HDA2A    0.900000E-01   1.00800           0   0.00000       0.00000    
     19170 BUTH     232      BUTH     H8       HDP1A    0.430000       1.00800           0   0.00000       0.00000    
     19171 BUTH     232      BUTH     H9       DUMH      0.00000       1.00800           0   0.00000       0.00000    
     19172 BUTH     232      BUTH     LPO11    LPDO1   -0.287000       0.00000          -1   0.00000       0.00000    
     19173 BUTH     232      BUTH     LPO12    LPDO1   -0.288000       0.00000          -1   0.00000       0.00000    
     19174 BUTH     232      BUTH     LPO21    LPD     -0.302000       0.00000          -1   0.00000       0.00000    
     19175 BUTH     232      BUTH     LPO22    LPD     -0.303000       0.00000          -1   0.00000       0.00000    
     19176 BUTH     233      BUTH     C1       CD33A     2.05990       11.6110           0  -1.81190       1.18670    
     19177 BUTH     233      BUTH     DC1      DRUD     -2.33590      0.400000           0   0.00000       0.00000    
     19178 BUTH     233      BUTH     C2       CD32A     2.02070       11.6110           0  -1.59660       1.16930    
     19179 BUTH     233      BUTH     DC2      DRUD     -2.19270      0.400000           0   0.00000       0.00000    
     19180 BUTH     233      BUTH     C3       CD32A     1.98270       11.6110           0  -1.59660       1.16930    
     19181 BUTH     233      BUTH     DC3      DRUD     -2.19270      0.400000           0   0.00000       0.00000    
     19182 BUTH     233      BUTH     C4       CD2O3A    2.72690       11.6110           0  -1.26130       1.05430    
     19183 BUTH     233      BUTH     DC4      DRUD     -1.94890      0.400000           0   0.00000       0.00000    
     19184 BUTH     233      BUTH     O1       OD2C1A    1.46540       15.5994           0 -0.713100      0.569800    
     19185 BUTH     233      BUTH     DO1      DRUD     -1.46540      0.400000           0   0.00000       0.00000    
     19186 BUTH     233      BUTH     O2       OD31A     1.58240       15.5990           0 -0.831500      0.749400    
     19187 BUTH     233      BUTH     DO2      DRUD     -1.58240      0.400000           0   0.00000       0.00000    
     19188 BUTH     233      BUTH     H1       HDA3A    0.900000E-01   1.00800           0   0.00000       0.00000    
     19189 BUTH     233      BUTH     H2       HDA3A    0.900000E-01   1.00800           0   0.00000       0.00000    
     19190 BUTH     233      BUTH     H3       HDA3A    0.900000E-01   1.00800           0   0.00000       0.00000    
     19191 BUTH     233      BUTH     H4       HDA2A    0.900000E-01   1.00800           0   0.00000       0.00000    
     19192 BUTH     233      BUTH     H5       HDA2A    0.900000E-01   1.00800           0   0.00000       0.00000    
     19193 BUTH     233      BUTH     H6       HDA2A    0.900000E-01   1.00800           0   0.00000       0.00000    
     19194 BUTH     233      BUTH     H7       HDA2A    0.900000E-01   1.00800           0   0.00000       0.00000    
     19195 BUTH     233      BUTH     H8       HDP1A    0.430000       1.00800           0   0.00000       0.00000    
     19196 BUTH     233      BUTH     H9       DUMH      0.00000       1.00800           0   0.00000       0.00000    
     19197 BUTH     233      BUTH     LPO11    LPDO1   -0.287000       0.00000          -1   0.00000       0.00000    
     19198 BUTH     233      BUTH     LPO12    LPDO1   -0.288000       0.00000          -1   0.00000       0.00000    
     19199 BUTH     233      BUTH     LPO21    LPD     -0.302000       0.00000          -1   0.00000       0.00000    
     19200 BUTH     233      BUTH     LPO22    LPD     -0.303000       0.00000          -1   0.00000       0.00000    
     19201 BUTH     234      BUTH     C1       CD33A     2.05990       11.6110           0  -1.81190       1.18670    
     19202 BUTH     234      BUTH     DC1      DRUD     -2.33590      0.400000           0   0.00000       0.00000    
     19203 BUTH     234      BUTH     C2       CD32A     2.02070       11.6110           0  -1.59660       1.16930    
     19204 BUTH     234      BUTH     DC2      DRUD     -2.19270      0.400000           0   0.00000       0.00000    
     19205 BUTH     234      BUTH     C3       CD32A     1.98270       11.6110           0  -1.59660       1.16930    
     19206 BUTH     234      BUTH     DC3      DRUD     -2.19270      0.400000           0   0.00000       0.00000    
     19207 BUTH     234      BUTH     C4       CD2O3A    2.72690       11.6110           0  -1.26130       1.05430    
     19208 BUTH     234      BUTH     DC4      DRUD     -1.94890      0.400000           0   0.00000       0.00000    
     19209 BUTH     234      BUTH     O1       OD2C1A    1.46540       15.5994           0 -0.713100      0.569800    
     19210 BUTH     234      BUTH     DO1      DRUD     -1.46540      0.400000           0   0.00000       0.00000    
     19211 BUTH     234      BUTH     O2       OD31A     1.58240       15.5990           0 -0.831500      0.749400    
     19212 BUTH     234      BUTH     DO2      DRUD     -1.58240      0.400000           0   0.00000       0.00000    
     19213 BUTH     234      BUTH     H1       HDA3A    0.900000E-01   1.00800           0   0.00000       0.00000    
     19214 BUTH     234      BUTH     H2       HDA3A    0.900000E-01   1.00800           0   0.00000       0.00000    
     19215 BUTH     234      BUTH     H3       HDA3A    0.900000E-01   1.00800           0   0.00000       0.00000    
     19216 BUTH     234      BUTH     H4       HDA2A    0.900000E-01   1.00800           0   0.00000       0.00000    
     19217 BUTH     234      BUTH     H5       HDA2A    0.900000E-01   1.00800           0   0.00000       0.00000    
     19218 BUTH     234      BUTH     H6       HDA2A    0.900000E-01   1.00800           0   0.00000       0.00000    
     19219 BUTH     234      BUTH     H7       HDA2A    0.900000E-01   1.00800           0   0.00000       0.00000    
     19220 BUTH     234      BUTH     H8       HDP1A    0.430000       1.00800           0   0.00000       0.00000    
     19221 BUTH     234      BUTH     H9       DUMH      0.00000       1.00800           0   0.00000       0.00000    
     19222 BUTH     234      BUTH     LPO11    LPDO1   -0.287000       0.00000          -1   0.00000       0.00000    
     19223 BUTH     234      BUTH     LPO12    LPDO1   -0.288000       0.00000          -1   0.00000       0.00000    
     19224 BUTH     234      BUTH     LPO21    LPD     -0.302000       0.00000          -1   0.00000       0.00000    
     19225 BUTH     234      BUTH     LPO22    LPD     -0.303000       0.00000          -1   0.00000       0.00000    
     19226 BUTH     235      BUTH     C1       CD33A     2.05990       11.6110           0  -1.81190       1.18670    
     19227 BUTH     235      BUTH     DC1      DRUD     -2.33590      0.400000           0   0.00000       0.00000    
     19228 BUTH     235      BUTH     C2       CD32A     2.02070       11.6110           0  -1.59660       1.16930    
     19229 BUTH     235      BUTH     DC2      DRUD     -2.19270      0.400000           0   0.00000       0.00000    
     19230 BUTH     235      BUTH     C3       CD32A     1.98270       11.6110           0  -1.59660       1.16930    
     19231 BUTH     235      BUTH     DC3      DRUD     -2.19270      0.400000           0   0.00000       0.00000    
     19232 BUTH     235      BUTH     C4       CD2O3A    2.72690       11.6110           0  -1.26130       1.05430    
     19233 BUTH     235      BUTH     DC4      DRUD     -1.94890      0.400000           0   0.00000       0.00000    
     19234 BUTH     235      BUTH     O1       OD2C1A    1.46540       15.5994           0 -0.713100      0.569800    
     19235 BUTH     235      BUTH     DO1      DRUD     -1.46540      0.400000           0   0.00000       0.00000    
     19236 BUTH     235      BUTH     O2       OD31A     1.58240       15.5990           0 -0.831500      0.749400    
     19237 BUTH     235      BUTH     DO2      DRUD     -1.58240      0.400000           0   0.00000       0.00000    
     19238 BUTH     235      BUTH     H1       HDA3A    0.900000E-01   1.00800           0   0.00000       0.00000    
     19239 BUTH     235      BUTH     H2       HDA3A    0.900000E-01   1.00800           0   0.00000       0.00000    
     19240 BUTH     235      BUTH     H3       HDA3A    0.900000E-01   1.00800           0   0.00000       0.00000    
     19241 BUTH     235      BUTH     H4       HDA2A    0.900000E-01   1.00800           0   0.00000       0.00000    
     19242 BUTH     235      BUTH     H5       HDA2A    0.900000E-01   1.00800           0   0.00000       0.00000    
     19243 BUTH     235      BUTH     H6       HDA2A    0.900000E-01   1.00800           0   0.00000       0.00000    
     19244 BUTH     235      BUTH     H7       HDA2A    0.900000E-01   1.00800           0   0.00000       0.00000    
     19245 BUTH     235      BUTH     H8       HDP1A    0.430000       1.00800           0   0.00000       0.00000    
     19246 BUTH     235      BUTH     H9       DUMH      0.00000       1.00800           0   0.00000       0.00000    
     19247 BUTH     235      BUTH     LPO11    LPDO1   -0.287000       0.00000          -1   0.00000       0.00000    
     19248 BUTH     235      BUTH     LPO12    LPDO1   -0.288000       0.00000          -1   0.00000       0.00000    
     19249 BUTH     235      BUTH     LPO21    LPD     -0.302000       0.00000          -1   0.00000       0.00000    
     19250 BUTH     235      BUTH     LPO22    LPD     -0.303000       0.00000          -1   0.00000       0.00000    
     19251 BUTH     236      BUTH     C1       CD33A     2.05990       11.6110           0  -1.81190       1.18670    
     19252 BUTH     236      BUTH     DC1      DRUD     -2.33590      0.400000           0   0.00000       0.00000    
     19253 BUTH     236      BUTH     C2       CD32A     2.02070       11.6110           0  -1.59660       1.16930    
     19254 BUTH     236      BUTH     DC2      DRUD     -2.19270      0.400000           0   0.00000       0.00000    
     19255 BUTH     236      BUTH     C3       CD32A     1.98270       11.6110           0  -1.59660       1.16930    
     19256 BUTH     236      BUTH     DC3      DRUD     -2.19270      0.400000           0   0.00000       0.00000    
     19257 BUTH     236      BUTH     C4       CD2O3A    2.72690       11.6110           0  -1.26130       1.05430    
     19258 BUTH     236      BUTH     DC4      DRUD     -1.94890      0.400000           0   0.00000       0.00000    
     19259 BUTH     236      BUTH     O1       OD2C1A    1.46540       15.5994           0 -0.713100      0.569800    
     19260 BUTH     236      BUTH     DO1      DRUD     -1.46540      0.400000           0   0.00000       0.00000    
     19261 BUTH     236      BUTH     O2       OD31A     1.58240       15.5990           0 -0.831500      0.749400    
     19262 BUTH     236      BUTH     DO2      DRUD     -1.58240      0.400000           0   0.00000       0.00000    
     19263 BUTH     236      BUTH     H1       HDA3A    0.900000E-01   1.00800           0   0.00000       0.00000    
     19264 BUTH     236      BUTH     H2       HDA3A    0.900000E-01   1.00800           0   0.00000       0.00000    
     19265 BUTH     236      BUTH     H3       HDA3A    0.900000E-01   1.00800           0   0.00000       0.00000    
     19266 BUTH     236      BUTH     H4       HDA2A    0.900000E-01   1.00800           0   0.00000       0.00000    
     19267 BUTH     236      BUTH     H5       HDA2A    0.900000E-01   1.00800           0   0.00000       0.00000    
     19268 BUTH     236      BUTH     H6       HDA2A    0.900000E-01   1.00800           0   0.00000       0.00000    
     19269 BUTH     236      BUTH     H7       HDA2A    0.900000E-01   1.00800           0   0.00000       0.00000    
     19270 BUTH     236      BUTH     H8       HDP1A    0.430000       1.00800           0   0.00000       0.00000    
     19271 BUTH     236      BUTH     H9       DUMH      0.00000       1.00800           0   0.00000       0.00000    
     19272 BUTH     236      BUTH     LPO11    LPDO1   -0.287000       0.00000          -1   0.00000       0.00000    
     19273 BUTH     236      BUTH     LPO12    LPDO1   -0.288000       0.00000          -1   0.00000       0.00000    
     19274 BUTH     236      BUTH     LPO21    LPD     -0.302000       0.00000          -1   0.00000       0.00000    
     19275 BUTH     236      BUTH     LPO22    LPD     -0.303000       0.00000          -1   0.00000       0.00000    
     19276 BUTH     237      BUTH     C1       CD33A     2.05990       11.6110           0  -1.81190       1.18670    
     19277 BUTH     237      BUTH     DC1      DRUD     -2.33590      0.400000           0   0.00000       0.00000    
     19278 BUTH     237      BUTH     C2       CD32A     2.02070       11.6110           0  -1.59660       1.16930    
     19279 BUTH     237      BUTH     DC2      DRUD     -2.19270      0.400000           0   0.00000       0.00000    
     19280 BUTH     237      BUTH     C3       CD32A     1.98270       11.6110           0  -1.59660       1.16930    
     19281 BUTH     237      BUTH     DC3      DRUD     -2.19270      0.400000           0   0.00000       0.00000    
     19282 BUTH     237      BUTH     C4       CD2O3A    2.72690       11.6110           0  -1.26130       1.05430    
     19283 BUTH     237      BUTH     DC4      DRUD     -1.94890      0.400000           0   0.00000       0.00000    
     19284 BUTH     237      BUTH     O1       OD2C1A    1.46540       15.5994           0 -0.713100      0.569800    
     19285 BUTH     237      BUTH     DO1      DRUD     -1.46540      0.400000           0   0.00000       0.00000    
     19286 BUTH     237      BUTH     O2       OD31A     1.58240       15.5990           0 -0.831500      0.749400    
     19287 BUTH     237      BUTH     DO2      DRUD     -1.58240      0.400000           0   0.00000       0.00000    
     19288 BUTH     237      BUTH     H1       HDA3A    0.900000E-01   1.00800           0   0.00000       0.00000    
     19289 BUTH     237      BUTH     H2       HDA3A    0.900000E-01   1.00800           0   0.00000       0.00000    
     19290 BUTH     237      BUTH     H3       HDA3A    0.900000E-01   1.00800           0   0.00000       0.00000    
     19291 BUTH     237      BUTH     H4       HDA2A    0.900000E-01   1.00800           0   0.00000       0.00000    
     19292 BUTH     237      BUTH     H5       HDA2A    0.900000E-01   1.00800           0   0.00000       0.00000    
     19293 BUTH     237      BUTH     H6       HDA2A    0.900000E-01   1.00800           0   0.00000       0.00000    
     19294 BUTH     237      BUTH     H7       HDA2A    0.900000E-01   1.00800           0   0.00000       0.00000    
     19295 BUTH     237      BUTH     H8       HDP1A    0.430000       1.00800           0   0.00000       0.00000    
     19296 BUTH     237      BUTH     H9       DUMH      0.00000       1.00800           0   0.00000       0.00000    
     19297 BUTH     237      BUTH     LPO11    LPDO1   -0.287000       0.00000          -1   0.00000       0.00000    
     19298 BUTH     237      BUTH     LPO12    LPDO1   -0.288000       0.00000          -1   0.00000       0.00000    
     19299 BUTH     237      BUTH     LPO21    LPD     -0.302000       0.00000          -1   0.00000       0.00000    
     19300 BUTH     237      BUTH     LPO22    LPD     -0.303000       0.00000          -1   0.00000       0.00000    
     19301 BUTH     238      BUTH     C1       CD33A     2.05990       11.6110           0  -1.81190       1.18670    
     19302 BUTH     238      BUTH     DC1      DRUD     -2.33590      0.400000           0   0.00000       0.00000    
     19303 BUTH     238      BUTH     C2       CD32A     2.02070       11.6110           0  -1.59660       1.16930    
     19304 BUTH     238      BUTH     DC2      DRUD     -2.19270      0.400000           0   0.00000       0.00000    
     19305 BUTH     238      BUTH     C3       CD32A     1.98270       11.6110           0  -1.59660       1.16930    
     19306 BUTH     238      BUTH     DC3      DRUD     -2.19270      0.400000           0   0.00000       0.00000    
     19307 BUTH     238      BUTH     C4       CD2O3A    2.72690       11.6110           0  -1.26130       1.05430    
     19308 BUTH     238      BUTH     DC4      DRUD     -1.94890      0.400000           0   0.00000       0.00000    
     19309 BUTH     238      BUTH     O1       OD2C1A    1.46540       15.5994           0 -0.713100      0.569800    
     19310 BUTH     238      BUTH     DO1      DRUD     -1.46540      0.400000           0   0.00000       0.00000    
     19311 BUTH     238      BUTH     O2       OD31A     1.58240       15.5990           0 -0.831500      0.749400    
     19312 BUTH     238      BUTH     DO2      DRUD     -1.58240      0.400000           0   0.00000       0.00000    
     19313 BUTH     238      BUTH     H1       HDA3A    0.900000E-01   1.00800           0   0.00000       0.00000    
     19314 BUTH     238      BUTH     H2       HDA3A    0.900000E-01   1.00800           0   0.00000       0.00000    
     19315 BUTH     238      BUTH     H3       HDA3A    0.900000E-01   1.00800           0   0.00000       0.00000    
     19316 BUTH     238      BUTH     H4       HDA2A    0.900000E-01   1.00800           0   0.00000       0.00000    
     19317 BUTH     238      BUTH     H5       HDA2A    0.900000E-01   1.00800           0   0.00000       0.00000    
     19318 BUTH     238      BUTH     H6       HDA2A    0.900000E-01   1.00800           0   0.00000       0.00000    
     19319 BUTH     238      BUTH     H7       HDA2A    0.900000E-01   1.00800           0   0.00000       0.00000    
     19320 BUTH     238      BUTH     H8       HDP1A    0.430000       1.00800           0   0.00000       0.00000    
     19321 BUTH     238      BUTH     H9       DUMH      0.00000       1.00800           0   0.00000       0.00000    
     19322 BUTH     238      BUTH     LPO11    LPDO1   -0.287000       0.00000          -1   0.00000       0.00000    
     19323 BUTH     238      BUTH     LPO12    LPDO1   -0.288000       0.00000          -1   0.00000       0.00000    
     19324 BUTH     238      BUTH     LPO21    LPD     -0.302000       0.00000          -1   0.00000       0.00000    
     19325 BUTH     238      BUTH     LPO22    LPD     -0.303000       0.00000          -1   0.00000       0.00000    
     19326 BUTH     239      BUTH     C1       CD33A     2.05990       11.6110           0  -1.81190       1.18670    
     19327 BUTH     239      BUTH     DC1      DRUD     -2.33590      0.400000           0   0.00000       0.00000    
     19328 BUTH     239      BUTH     C2       CD32A     2.02070       11.6110           0  -1.59660       1.16930    
     19329 BUTH     239      BUTH     DC2      DRUD     -2.19270      0.400000           0   0.00000       0.00000    
     19330 BUTH     239      BUTH     C3       CD32A     1.98270       11.6110           0  -1.59660       1.16930    
     19331 BUTH     239      BUTH     DC3      DRUD     -2.19270      0.400000           0   0.00000       0.00000    
     19332 BUTH     239      BUTH     C4       CD2O3A    2.72690       11.6110           0  -1.26130       1.05430    
     19333 BUTH     239      BUTH     DC4      DRUD     -1.94890      0.400000           0   0.00000       0.00000    
     19334 BUTH     239      BUTH     O1       OD2C1A    1.46540       15.5994           0 -0.713100      0.569800    
     19335 BUTH     239      BUTH     DO1      DRUD     -1.46540      0.400000           0   0.00000       0.00000    
     19336 BUTH     239      BUTH     O2       OD31A     1.58240       15.5990           0 -0.831500      0.749400    
     19337 BUTH     239      BUTH     DO2      DRUD     -1.58240      0.400000           0   0.00000       0.00000    
     19338 BUTH     239      BUTH     H1       HDA3A    0.900000E-01   1.00800           0   0.00000       0.00000    
     19339 BUTH     239      BUTH     H2       HDA3A    0.900000E-01   1.00800           0   0.00000       0.00000    
     19340 BUTH     239      BUTH     H3       HDA3A    0.900000E-01   1.00800           0   0.00000       0.00000    
     19341 BUTH     239      BUTH     H4       HDA2A    0.900000E-01   1.00800           0   0.00000       0.00000    
     19342 BUTH     239      BUTH     H5       HDA2A    0.900000E-01   1.00800           0   0.00000       0.00000    
     19343 BUTH     239      BUTH     H6       HDA2A    0.900000E-01   1.00800           0   0.00000       0.00000    
     19344 BUTH     239      BUTH     H7       HDA2A    0.900000E-01   1.00800           0   0.00000       0.00000    
     19345 BUTH     239      BUTH     H8       HDP1A    0.430000       1.00800           0   0.00000       0.00000    
     19346 BUTH     239      BUTH     H9       DUMH      0.00000       1.00800           0   0.00000       0.00000    
     19347 BUTH     239      BUTH     LPO11    LPDO1   -0.287000       0.00000          -1   0.00000       0.00000    
     19348 BUTH     239      BUTH     LPO12    LPDO1   -0.288000       0.00000          -1   0.00000       0.00000    
     19349 BUTH     239      BUTH     LPO21    LPD     -0.302000       0.00000          -1   0.00000       0.00000    
     19350 BUTH     239      BUTH     LPO22    LPD     -0.303000       0.00000          -1   0.00000       0.00000    
     19351 BUTH     240      BUTH     C1       CD33A     2.05990       11.6110           0  -1.81190       1.18670    
     19352 BUTH     240      BUTH     DC1      DRUD     -2.33590      0.400000           0   0.00000       0.00000    
     19353 BUTH     240      BUTH     C2       CD32A     2.02070       11.6110           0  -1.59660       1.16930    
     19354 BUTH     240      BUTH     DC2      DRUD     -2.19270      0.400000           0   0.00000       0.00000    
     19355 BUTH     240      BUTH     C3       CD32A     1.98270       11.6110           0  -1.59660       1.16930    
     19356 BUTH     240      BUTH     DC3      DRUD     -2.19270      0.400000           0   0.00000       0.00000    
     19357 BUTH     240      BUTH     C4       CD2O3A    2.72690       11.6110           0  -1.26130       1.05430    
     19358 BUTH     240      BUTH     DC4      DRUD     -1.94890      0.400000           0   0.00000       0.00000    
     19359 BUTH     240      BUTH     O1       OD2C1A    1.46540       15.5994           0 -0.713100      0.569800    
     19360 BUTH     240      BUTH     DO1      DRUD     -1.46540      0.400000           0   0.00000       0.00000    
     19361 BUTH     240      BUTH     O2       OD31A     1.58240       15.5990           0 -0.831500      0.749400    
     19362 BUTH     240      BUTH     DO2      DRUD     -1.58240      0.400000           0   0.00000       0.00000    
     19363 BUTH     240      BUTH     H1       HDA3A    0.900000E-01   1.00800           0   0.00000       0.00000    
     19364 BUTH     240      BUTH     H2       HDA3A    0.900000E-01   1.00800           0   0.00000       0.00000    
     19365 BUTH     240      BUTH     H3       HDA3A    0.900000E-01   1.00800           0   0.00000       0.00000    
     19366 BUTH     240      BUTH     H4       HDA2A    0.900000E-01   1.00800           0   0.00000       0.00000    
     19367 BUTH     240      BUTH     H5       HDA2A    0.900000E-01   1.00800           0   0.00000       0.00000    
     19368 BUTH     240      BUTH     H6       HDA2A    0.900000E-01   1.00800           0   0.00000       0.00000    
     19369 BUTH     240      BUTH     H7       HDA2A    0.900000E-01   1.00800           0   0.00000       0.00000    
     19370 BUTH     240      BUTH     H8       HDP1A    0.430000       1.00800           0   0.00000       0.00000    
     19371 BUTH     240      BUTH     H9       DUMH      0.00000       1.00800           0   0.00000       0.00000    
     19372 BUTH     240      BUTH     LPO11    LPDO1   -0.287000       0.00000          -1   0.00000       0.00000    
     19373 BUTH     240      BUTH     LPO12    LPDO1   -0.288000       0.00000          -1   0.00000       0.00000    
     19374 BUTH     240      BUTH     LPO21    LPD     -0.302000       0.00000          -1   0.00000       0.00000    
     19375 BUTH     240      BUTH     LPO22    LPD     -0.303000       0.00000          -1   0.00000       0.00000    
     19376 BUTH     241      BUTH     C1       CD33A     2.05990       11.6110           0  -1.81190       1.18670    
     19377 BUTH     241      BUTH     DC1      DRUD     -2.33590      0.400000           0   0.00000       0.00000    
     19378 BUTH     241      BUTH     C2       CD32A     2.02070       11.6110           0  -1.59660       1.16930    
     19379 BUTH     241      BUTH     DC2      DRUD     -2.19270      0.400000           0   0.00000       0.00000    
     19380 BUTH     241      BUTH     C3       CD32A     1.98270       11.6110           0  -1.59660       1.16930    
     19381 BUTH     241      BUTH     DC3      DRUD     -2.19270      0.400000           0   0.00000       0.00000    
     19382 BUTH     241      BUTH     C4       CD2O3A    2.72690       11.6110           0  -1.26130       1.05430    
     19383 BUTH     241      BUTH     DC4      DRUD     -1.94890      0.400000           0   0.00000       0.00000    
     19384 BUTH     241      BUTH     O1       OD2C1A    1.46540       15.5994           0 -0.713100      0.569800    
     19385 BUTH     241      BUTH     DO1      DRUD     -1.46540      0.400000           0   0.00000       0.00000    
     19386 BUTH     241      BUTH     O2       OD31A     1.58240       15.5990           0 -0.831500      0.749400    
     19387 BUTH     241      BUTH     DO2      DRUD     -1.58240      0.400000           0   0.00000       0.00000    
     19388 BUTH     241      BUTH     H1       HDA3A    0.900000E-01   1.00800           0   0.00000       0.00000    
     19389 BUTH     241      BUTH     H2       HDA3A    0.900000E-01   1.00800           0   0.00000       0.00000    
     19390 BUTH     241      BUTH     H3       HDA3A    0.900000E-01   1.00800           0   0.00000       0.00000    
     19391 BUTH     241      BUTH     H4       HDA2A    0.900000E-01   1.00800           0   0.00000       0.00000    
     19392 BUTH     241      BUTH     H5       HDA2A    0.900000E-01   1.00800           0   0.00000       0.00000    
     19393 BUTH     241      BUTH     H6       HDA2A    0.900000E-01   1.00800           0   0.00000       0.00000    
     19394 BUTH     241      BUTH     H7       HDA2A    0.900000E-01   1.00800           0   0.00000       0.00000    
     19395 BUTH     241      BUTH     H8       HDP1A    0.430000       1.00800           0   0.00000       0.00000    
     19396 BUTH     241      BUTH     H9       DUMH      0.00000       1.00800           0   0.00000       0.00000    
     19397 BUTH     241      BUTH     LPO11    LPDO1   -0.287000       0.00000          -1   0.00000       0.00000    
     19398 BUTH     241      BUTH     LPO12    LPDO1   -0.288000       0.00000          -1   0.00000       0.00000    
     19399 BUTH     241      BUTH     LPO21    LPD     -0.302000       0.00000          -1   0.00000       0.00000    
     19400 BUTH     241      BUTH     LPO22    LPD     -0.303000       0.00000          -1   0.00000       0.00000    
     19401 BUTH     242      BUTH     C1       CD33A     2.05990       11.6110           0  -1.81190       1.18670    
     19402 BUTH     242      BUTH     DC1      DRUD     -2.33590      0.400000           0   0.00000       0.00000    
     19403 BUTH     242      BUTH     C2       CD32A     2.02070       11.6110           0  -1.59660       1.16930    
     19404 BUTH     242      BUTH     DC2      DRUD     -2.19270      0.400000           0   0.00000       0.00000    
     19405 BUTH     242      BUTH     C3       CD32A     1.98270       11.6110           0  -1.59660       1.16930    
     19406 BUTH     242      BUTH     DC3      DRUD     -2.19270      0.400000           0   0.00000       0.00000    
     19407 BUTH     242      BUTH     C4       CD2O3A    2.72690       11.6110           0  -1.26130       1.05430    
     19408 BUTH     242      BUTH     DC4      DRUD     -1.94890      0.400000           0   0.00000       0.00000    
     19409 BUTH     242      BUTH     O1       OD2C1A    1.46540       15.5994           0 -0.713100      0.569800    
     19410 BUTH     242      BUTH     DO1      DRUD     -1.46540      0.400000           0   0.00000       0.00000    
     19411 BUTH     242      BUTH     O2       OD31A     1.58240       15.5990           0 -0.831500      0.749400    
     19412 BUTH     242      BUTH     DO2      DRUD     -1.58240      0.400000           0   0.00000       0.00000    
     19413 BUTH     242      BUTH     H1       HDA3A    0.900000E-01   1.00800           0   0.00000       0.00000    
     19414 BUTH     242      BUTH     H2       HDA3A    0.900000E-01   1.00800           0   0.00000       0.00000    
     19415 BUTH     242      BUTH     H3       HDA3A    0.900000E-01   1.00800           0   0.00000       0.00000    
     19416 BUTH     242      BUTH     H4       HDA2A    0.900000E-01   1.00800           0   0.00000       0.00000    
     19417 BUTH     242      BUTH     H5       HDA2A    0.900000E-01   1.00800           0   0.00000       0.00000    
     19418 BUTH     242      BUTH     H6       HDA2A    0.900000E-01   1.00800           0   0.00000       0.00000    
     19419 BUTH     242      BUTH     H7       HDA2A    0.900000E-01   1.00800           0   0.00000       0.00000    
     19420 BUTH     242      BUTH     H8       HDP1A    0.430000       1.00800           0   0.00000       0.00000    
     19421 BUTH     242      BUTH     H9       DUMH      0.00000       1.00800           0   0.00000       0.00000    
     19422 BUTH     242      BUTH     LPO11    LPDO1   -0.287000       0.00000          -1   0.00000       0.00000    
     19423 BUTH     242      BUTH     LPO12    LPDO1   -0.288000       0.00000          -1   0.00000       0.00000    
     19424 BUTH     242      BUTH     LPO21    LPD     -0.302000       0.00000          -1   0.00000       0.00000    
     19425 BUTH     242      BUTH     LPO22    LPD     -0.303000       0.00000          -1   0.00000       0.00000    
     19426 BUTH     243      BUTH     C1       CD33A     2.05990       11.6110           0  -1.81190       1.18670    
     19427 BUTH     243      BUTH     DC1      DRUD     -2.33590      0.400000           0   0.00000       0.00000    
     19428 BUTH     243      BUTH     C2       CD32A     2.02070       11.6110           0  -1.59660       1.16930    
     19429 BUTH     243      BUTH     DC2      DRUD     -2.19270      0.400000           0   0.00000       0.00000    
     19430 BUTH     243      BUTH     C3       CD32A     1.98270       11.6110           0  -1.59660       1.16930    
     19431 BUTH     243      BUTH     DC3      DRUD     -2.19270      0.400000           0   0.00000       0.00000    
     19432 BUTH     243      BUTH     C4       CD2O3A    2.72690       11.6110           0  -1.26130       1.05430    
     19433 BUTH     243      BUTH     DC4      DRUD     -1.94890      0.400000           0   0.00000       0.00000    
     19434 BUTH     243      BUTH     O1       OD2C1A    1.46540       15.5994           0 -0.713100      0.569800    
     19435 BUTH     243      BUTH     DO1      DRUD     -1.46540      0.400000           0   0.00000       0.00000    
     19436 BUTH     243      BUTH     O2       OD31A     1.58240       15.5990           0 -0.831500      0.749400    
     19437 BUTH     243      BUTH     DO2      DRUD     -1.58240      0.400000           0   0.00000       0.00000    
     19438 BUTH     243      BUTH     H1       HDA3A    0.900000E-01   1.00800           0   0.00000       0.00000    
     19439 BUTH     243      BUTH     H2       HDA3A    0.900000E-01   1.00800           0   0.00000       0.00000    
     19440 BUTH     243      BUTH     H3       HDA3A    0.900000E-01   1.00800           0   0.00000       0.00000    
     19441 BUTH     243      BUTH     H4       HDA2A    0.900000E-01   1.00800           0   0.00000       0.00000    
     19442 BUTH     243      BUTH     H5       HDA2A    0.900000E-01   1.00800           0   0.00000       0.00000    
     19443 BUTH     243      BUTH     H6       HDA2A    0.900000E-01   1.00800           0   0.00000       0.00000    
     19444 BUTH     243      BUTH     H7       HDA2A    0.900000E-01   1.00800           0   0.00000       0.00000    
     19445 BUTH     243      BUTH     H8       HDP1A    0.430000       1.00800           0   0.00000       0.00000    
     19446 BUTH     243      BUTH     H9       DUMH      0.00000       1.00800           0   0.00000       0.00000    
     19447 BUTH     243      BUTH     LPO11    LPDO1   -0.287000       0.00000          -1   0.00000       0.00000    
     19448 BUTH     243      BUTH     LPO12    LPDO1   -0.288000       0.00000          -1   0.00000       0.00000    
     19449 BUTH     243      BUTH     LPO21    LPD     -0.302000       0.00000          -1   0.00000       0.00000    
     19450 BUTH     243      BUTH     LPO22    LPD     -0.303000       0.00000          -1   0.00000       0.00000    
     19451 BUTH     244      BUTH     C1       CD33A     2.05990       11.6110           0  -1.81190       1.18670    
     19452 BUTH     244      BUTH     DC1      DRUD     -2.33590      0.400000           0   0.00000       0.00000    
     19453 BUTH     244      BUTH     C2       CD32A     2.02070       11.6110           0  -1.59660       1.16930    
     19454 BUTH     244      BUTH     DC2      DRUD     -2.19270      0.400000           0   0.00000       0.00000    
     19455 BUTH     244      BUTH     C3       CD32A     1.98270       11.6110           0  -1.59660       1.16930    
     19456 BUTH     244      BUTH     DC3      DRUD     -2.19270      0.400000           0   0.00000       0.00000    
     19457 BUTH     244      BUTH     C4       CD2O3A    2.72690       11.6110           0  -1.26130       1.05430    
     19458 BUTH     244      BUTH     DC4      DRUD     -1.94890      0.400000           0   0.00000       0.00000    
     19459 BUTH     244      BUTH     O1       OD2C1A    1.46540       15.5994           0 -0.713100      0.569800    
     19460 BUTH     244      BUTH     DO1      DRUD     -1.46540      0.400000           0   0.00000       0.00000    
     19461 BUTH     244      BUTH     O2       OD31A     1.58240       15.5990           0 -0.831500      0.749400    
     19462 BUTH     244      BUTH     DO2      DRUD     -1.58240      0.400000           0   0.00000       0.00000    
     19463 BUTH     244      BUTH     H1       HDA3A    0.900000E-01   1.00800           0   0.00000       0.00000    
     19464 BUTH     244      BUTH     H2       HDA3A    0.900000E-01   1.00800           0   0.00000       0.00000    
     19465 BUTH     244      BUTH     H3       HDA3A    0.900000E-01   1.00800           0   0.00000       0.00000    
     19466 BUTH     244      BUTH     H4       HDA2A    0.900000E-01   1.00800           0   0.00000       0.00000    
     19467 BUTH     244      BUTH     H5       HDA2A    0.900000E-01   1.00800           0   0.00000       0.00000    
     19468 BUTH     244      BUTH     H6       HDA2A    0.900000E-01   1.00800           0   0.00000       0.00000    
     19469 BUTH     244      BUTH     H7       HDA2A    0.900000E-01   1.00800           0   0.00000       0.00000    
     19470 BUTH     244      BUTH     H8       HDP1A    0.430000       1.00800           0   0.00000       0.00000    
     19471 BUTH     244      BUTH     H9       DUMH      0.00000       1.00800           0   0.00000       0.00000    
     19472 BUTH     244      BUTH     LPO11    LPDO1   -0.287000       0.00000          -1   0.00000       0.00000    
     19473 BUTH     244      BUTH     LPO12    LPDO1   -0.288000       0.00000          -1   0.00000       0.00000    
     19474 BUTH     244      BUTH     LPO21    LPD     -0.302000       0.00000          -1   0.00000       0.00000    
     19475 BUTH     244      BUTH     LPO22    LPD     -0.303000       0.00000          -1   0.00000       0.00000    
     19476 BUTH     245      BUTH     C1       CD33A     2.05990       11.6110           0  -1.81190       1.18670    
     19477 BUTH     245      BUTH     DC1      DRUD     -2.33590      0.400000           0   0.00000       0.00000    
     19478 BUTH     245      BUTH     C2       CD32A     2.02070       11.6110           0  -1.59660       1.16930    
     19479 BUTH     245      BUTH     DC2      DRUD     -2.19270      0.400000           0   0.00000       0.00000    
     19480 BUTH     245      BUTH     C3       CD32A     1.98270       11.6110           0  -1.59660       1.16930    
     19481 BUTH     245      BUTH     DC3      DRUD     -2.19270      0.400000           0   0.00000       0.00000    
     19482 BUTH     245      BUTH     C4       CD2O3A    2.72690       11.6110           0  -1.26130       1.05430    
     19483 BUTH     245      BUTH     DC4      DRUD     -1.94890      0.400000           0   0.00000       0.00000    
     19484 BUTH     245      BUTH     O1       OD2C1A    1.46540       15.5994           0 -0.713100      0.569800    
     19485 BUTH     245      BUTH     DO1      DRUD     -1.46540      0.400000           0   0.00000       0.00000    
     19486 BUTH     245      BUTH     O2       OD31A     1.58240       15.5990           0 -0.831500      0.749400    
     19487 BUTH     245      BUTH     DO2      DRUD     -1.58240      0.400000           0   0.00000       0.00000    
     19488 BUTH     245      BUTH     H1       HDA3A    0.900000E-01   1.00800           0   0.00000       0.00000    
     19489 BUTH     245      BUTH     H2       HDA3A    0.900000E-01   1.00800           0   0.00000       0.00000    
     19490 BUTH     245      BUTH     H3       HDA3A    0.900000E-01   1.00800           0   0.00000       0.00000    
     19491 BUTH     245      BUTH     H4       HDA2A    0.900000E-01   1.00800           0   0.00000       0.00000    
     19492 BUTH     245      BUTH     H5       HDA2A    0.900000E-01   1.00800           0   0.00000       0.00000    
     19493 BUTH     245      BUTH     H6       HDA2A    0.900000E-01   1.00800           0   0.00000       0.00000    
     19494 BUTH     245      BUTH     H7       HDA2A    0.900000E-01   1.00800           0   0.00000       0.00000    
     19495 BUTH     245      BUTH     H8       HDP1A    0.430000       1.00800           0   0.00000       0.00000    
     19496 BUTH     245      BUTH     H9       DUMH      0.00000       1.00800           0   0.00000       0.00000    
     19497 BUTH     245      BUTH     LPO11    LPDO1   -0.287000       0.00000          -1   0.00000       0.00000    
     19498 BUTH     245      BUTH     LPO12    LPDO1   -0.288000       0.00000          -1   0.00000       0.00000    
     19499 BUTH     245      BUTH     LPO21    LPD     -0.302000       0.00000          -1   0.00000       0.00000    
     19500 BUTH     245      BUTH     LPO22    LPD     -0.303000       0.00000          -1   0.00000       0.00000    
     19501 BUTH     246      BUTH     C1       CD33A     2.05990       11.6110           0  -1.81190       1.18670    
     19502 BUTH     246      BUTH     DC1      DRUD     -2.33590      0.400000           0   0.00000       0.00000    
     19503 BUTH     246      BUTH     C2       CD32A     2.02070       11.6110           0  -1.59660       1.16930    
     19504 BUTH     246      BUTH     DC2      DRUD     -2.19270      0.400000           0   0.00000       0.00000    
     19505 BUTH     246      BUTH     C3       CD32A     1.98270       11.6110           0  -1.59660       1.16930    
     19506 BUTH     246      BUTH     DC3      DRUD     -2.19270      0.400000           0   0.00000       0.00000    
     19507 BUTH     246      BUTH     C4       CD2O3A    2.72690       11.6110           0  -1.26130       1.05430    
     19508 BUTH     246      BUTH     DC4      DRUD     -1.94890      0.400000           0   0.00000       0.00000    
     19509 BUTH     246      BUTH     O1       OD2C1A    1.46540       15.5994           0 -0.713100      0.569800    
     19510 BUTH     246      BUTH     DO1      DRUD     -1.46540      0.400000           0   0.00000       0.00000    
     19511 BUTH     246      BUTH     O2       OD31A     1.58240       15.5990           0 -0.831500      0.749400    
     19512 BUTH     246      BUTH     DO2      DRUD     -1.58240      0.400000           0   0.00000       0.00000    
     19513 BUTH     246      BUTH     H1       HDA3A    0.900000E-01   1.00800           0   0.00000       0.00000    
     19514 BUTH     246      BUTH     H2       HDA3A    0.900000E-01   1.00800           0   0.00000       0.00000    
     19515 BUTH     246      BUTH     H3       HDA3A    0.900000E-01   1.00800           0   0.00000       0.00000    
     19516 BUTH     246      BUTH     H4       HDA2A    0.900000E-01   1.00800           0   0.00000       0.00000    
     19517 BUTH     246      BUTH     H5       HDA2A    0.900000E-01   1.00800           0   0.00000       0.00000    
     19518 BUTH     246      BUTH     H6       HDA2A    0.900000E-01   1.00800           0   0.00000       0.00000    
     19519 BUTH     246      BUTH     H7       HDA2A    0.900000E-01   1.00800           0   0.00000       0.00000    
     19520 BUTH     246      BUTH     H8       HDP1A    0.430000       1.00800           0   0.00000       0.00000    
     19521 BUTH     246      BUTH     H9       DUMH      0.00000       1.00800           0   0.00000       0.00000    
     19522 BUTH     246      BUTH     LPO11    LPDO1   -0.287000       0.00000          -1   0.00000       0.00000    
     19523 BUTH     246      BUTH     LPO12    LPDO1   -0.288000       0.00000          -1   0.00000       0.00000    
     19524 BUTH     246      BUTH     LPO21    LPD     -0.302000       0.00000          -1   0.00000       0.00000    
     19525 BUTH     246      BUTH     LPO22    LPD     -0.303000       0.00000          -1   0.00000       0.00000    
     19526 BUTH     247      BUTH     C1       CD33A     2.05990       11.6110           0  -1.81190       1.18670    
     19527 BUTH     247      BUTH     DC1      DRUD     -2.33590      0.400000           0   0.00000       0.00000    
     19528 BUTH     247      BUTH     C2       CD32A     2.02070       11.6110           0  -1.59660       1.16930    
     19529 BUTH     247      BUTH     DC2      DRUD     -2.19270      0.400000           0   0.00000       0.00000    
     19530 BUTH     247      BUTH     C3       CD32A     1.98270       11.6110           0  -1.59660       1.16930    
     19531 BUTH     247      BUTH     DC3      DRUD     -2.19270      0.400000           0   0.00000       0.00000    
     19532 BUTH     247      BUTH     C4       CD2O3A    2.72690       11.6110           0  -1.26130       1.05430    
     19533 BUTH     247      BUTH     DC4      DRUD     -1.94890      0.400000           0   0.00000       0.00000    
     19534 BUTH     247      BUTH     O1       OD2C1A    1.46540       15.5994           0 -0.713100      0.569800    
     19535 BUTH     247      BUTH     DO1      DRUD     -1.46540      0.400000           0   0.00000       0.00000    
     19536 BUTH     247      BUTH     O2       OD31A     1.58240       15.5990           0 -0.831500      0.749400    
     19537 BUTH     247      BUTH     DO2      DRUD     -1.58240      0.400000           0   0.00000       0.00000    
     19538 BUTH     247      BUTH     H1       HDA3A    0.900000E-01   1.00800           0   0.00000       0.00000    
     19539 BUTH     247      BUTH     H2       HDA3A    0.900000E-01   1.00800           0   0.00000       0.00000    
     19540 BUTH     247      BUTH     H3       HDA3A    0.900000E-01   1.00800           0   0.00000       0.00000    
     19541 BUTH     247      BUTH     H4       HDA2A    0.900000E-01   1.00800           0   0.00000       0.00000    
     19542 BUTH     247      BUTH     H5       HDA2A    0.900000E-01   1.00800           0   0.00000       0.00000    
     19543 BUTH     247      BUTH     H6       HDA2A    0.900000E-01   1.00800           0   0.00000       0.00000    
     19544 BUTH     247      BUTH     H7       HDA2A    0.900000E-01   1.00800           0   0.00000       0.00000    
     19545 BUTH     247      BUTH     H8       HDP1A    0.430000       1.00800           0   0.00000       0.00000    
     19546 BUTH     247      BUTH     H9       DUMH      0.00000       1.00800           0   0.00000       0.00000    
     19547 BUTH     247      BUTH     LPO11    LPDO1   -0.287000       0.00000          -1   0.00000       0.00000    
     19548 BUTH     247      BUTH     LPO12    LPDO1   -0.288000       0.00000          -1   0.00000       0.00000    
     19549 BUTH     247      BUTH     LPO21    LPD     -0.302000       0.00000          -1   0.00000       0.00000    
     19550 BUTH     247      BUTH     LPO22    LPD     -0.303000       0.00000          -1   0.00000       0.00000    
     19551 BUTH     248      BUTH     C1       CD33A     2.05990       11.6110           0  -1.81190       1.18670    
     19552 BUTH     248      BUTH     DC1      DRUD     -2.33590      0.400000           0   0.00000       0.00000    
     19553 BUTH     248      BUTH     C2       CD32A     2.02070       11.6110           0  -1.59660       1.16930    
     19554 BUTH     248      BUTH     DC2      DRUD     -2.19270      0.400000           0   0.00000       0.00000    
     19555 BUTH     248      BUTH     C3       CD32A     1.98270       11.6110           0  -1.59660       1.16930    
     19556 BUTH     248      BUTH     DC3      DRUD     -2.19270      0.400000           0   0.00000       0.00000    
     19557 BUTH     248      BUTH     C4       CD2O3A    2.72690       11.6110           0  -1.26130       1.05430    
     19558 BUTH     248      BUTH     DC4      DRUD     -1.94890      0.400000           0   0.00000       0.00000    
     19559 BUTH     248      BUTH     O1       OD2C1A    1.46540       15.5994           0 -0.713100      0.569800    
     19560 BUTH     248      BUTH     DO1      DRUD     -1.46540      0.400000           0   0.00000       0.00000    
     19561 BUTH     248      BUTH     O2       OD31A     1.58240       15.5990           0 -0.831500      0.749400    
     19562 BUTH     248      BUTH     DO2      DRUD     -1.58240      0.400000           0   0.00000       0.00000    
     19563 BUTH     248      BUTH     H1       HDA3A    0.900000E-01   1.00800           0   0.00000       0.00000    
     19564 BUTH     248      BUTH     H2       HDA3A    0.900000E-01   1.00800           0   0.00000       0.00000    
     19565 BUTH     248      BUTH     H3       HDA3A    0.900000E-01   1.00800           0   0.00000       0.00000    
     19566 BUTH     248      BUTH     H4       HDA2A    0.900000E-01   1.00800           0   0.00000       0.00000    
     19567 BUTH     248      BUTH     H5       HDA2A    0.900000E-01   1.00800           0   0.00000       0.00000    
     19568 BUTH     248      BUTH     H6       HDA2A    0.900000E-01   1.00800           0   0.00000       0.00000    
     19569 BUTH     248      BUTH     H7       HDA2A    0.900000E-01   1.00800           0   0.00000       0.00000    
     19570 BUTH     248      BUTH     H8       HDP1A    0.430000       1.00800           0   0.00000       0.00000    
     19571 BUTH     248      BUTH     H9       DUMH      0.00000       1.00800           0   0.00000       0.00000    
     19572 BUTH     248      BUTH     LPO11    LPDO1   -0.287000       0.00000          -1   0.00000       0.00000    
     19573 BUTH     248      BUTH     LPO12    LPDO1   -0.288000       0.00000          -1   0.00000       0.00000    
     19574 BUTH     248      BUTH     LPO21    LPD     -0.302000       0.00000          -1   0.00000       0.00000    
     19575 BUTH     248      BUTH     LPO22    LPD     -0.303000       0.00000          -1   0.00000       0.00000    
     19576 BUTH     249      BUTH     C1       CD33A     2.05990       11.6110           0  -1.81190       1.18670    
     19577 BUTH     249      BUTH     DC1      DRUD     -2.33590      0.400000           0   0.00000       0.00000    
     19578 BUTH     249      BUTH     C2       CD32A     2.02070       11.6110           0  -1.59660       1.16930    
     19579 BUTH     249      BUTH     DC2      DRUD     -2.19270      0.400000           0   0.00000       0.00000    
     19580 BUTH     249      BUTH     C3       CD32A     1.98270       11.6110           0  -1.59660       1.16930    
     19581 BUTH     249      BUTH     DC3      DRUD     -2.19270      0.400000           0   0.00000       0.00000    
     19582 BUTH     249      BUTH     C4       CD2O3A    2.72690       11.6110           0  -1.26130       1.05430    
     19583 BUTH     249      BUTH     DC4      DRUD     -1.94890      0.400000           0   0.00000       0.00000    
     19584 BUTH     249      BUTH     O1       OD2C1A    1.46540       15.5994           0 -0.713100      0.569800    
     19585 BUTH     249      BUTH     DO1      DRUD     -1.46540      0.400000           0   0.00000       0.00000    
     19586 BUTH     249      BUTH     O2       OD31A     1.58240       15.5990           0 -0.831500      0.749400    
     19587 BUTH     249      BUTH     DO2      DRUD     -1.58240      0.400000           0   0.00000       0.00000    
     19588 BUTH     249      BUTH     H1       HDA3A    0.900000E-01   1.00800           0   0.00000       0.00000    
     19589 BUTH     249      BUTH     H2       HDA3A    0.900000E-01   1.00800           0   0.00000       0.00000    
     19590 BUTH     249      BUTH     H3       HDA3A    0.900000E-01   1.00800           0   0.00000       0.00000    
     19591 BUTH     249      BUTH     H4       HDA2A    0.900000E-01   1.00800           0   0.00000       0.00000    
     19592 BUTH     249      BUTH     H5       HDA2A    0.900000E-01   1.00800           0   0.00000       0.00000    
     19593 BUTH     249      BUTH     H6       HDA2A    0.900000E-01   1.00800           0   0.00000       0.00000    
     19594 BUTH     249      BUTH     H7       HDA2A    0.900000E-01   1.00800           0   0.00000       0.00000    
     19595 BUTH     249      BUTH     H8       HDP1A    0.430000       1.00800           0   0.00000       0.00000    
     19596 BUTH     249      BUTH     H9       DUMH      0.00000       1.00800           0   0.00000       0.00000    
     19597 BUTH     249      BUTH     LPO11    LPDO1   -0.287000       0.00000          -1   0.00000       0.00000    
     19598 BUTH     249      BUTH     LPO12    LPDO1   -0.288000       0.00000          -1   0.00000       0.00000    
     19599 BUTH     249      BUTH     LPO21    LPD     -0.302000       0.00000          -1   0.00000       0.00000    
     19600 BUTH     249      BUTH     LPO22    LPD     -0.303000       0.00000          -1   0.00000       0.00000    
     19601 BUTH     250      BUTH     C1       CD33A     2.05990       11.6110           0  -1.81190       1.18670    
     19602 BUTH     250      BUTH     DC1      DRUD     -2.33590      0.400000           0   0.00000       0.00000    
     19603 BUTH     250      BUTH     C2       CD32A     2.02070       11.6110           0  -1.59660       1.16930    
     19604 BUTH     250      BUTH     DC2      DRUD     -2.19270      0.400000           0   0.00000       0.00000    
     19605 BUTH     250      BUTH     C3       CD32A     1.98270       11.6110           0  -1.59660       1.16930    
     19606 BUTH     250      BUTH     DC3      DRUD     -2.19270      0.400000           0   0.00000       0.00000    
     19607 BUTH     250      BUTH     C4       CD2O3A    2.72690       11.6110           0  -1.26130       1.05430    
     19608 BUTH     250      BUTH     DC4      DRUD     -1.94890      0.400000           0   0.00000       0.00000    
     19609 BUTH     250      BUTH     O1       OD2C1A    1.46540       15.5994           0 -0.713100      0.569800    
     19610 BUTH     250      BUTH     DO1      DRUD     -1.46540      0.400000           0   0.00000       0.00000    
     19611 BUTH     250      BUTH     O2       OD31A     1.58240       15.5990           0 -0.831500      0.749400    
     19612 BUTH     250      BUTH     DO2      DRUD     -1.58240      0.400000           0   0.00000       0.00000    
     19613 BUTH     250      BUTH     H1       HDA3A    0.900000E-01   1.00800           0   0.00000       0.00000    
     19614 BUTH     250      BUTH     H2       HDA3A    0.900000E-01   1.00800           0   0.00000       0.00000    
     19615 BUTH     250      BUTH     H3       HDA3A    0.900000E-01   1.00800           0   0.00000       0.00000    
     19616 BUTH     250      BUTH     H4       HDA2A    0.900000E-01   1.00800           0   0.00000       0.00000    
     19617 BUTH     250      BUTH     H5       HDA2A    0.900000E-01   1.00800           0   0.00000       0.00000    
     19618 BUTH     250      BUTH     H6       HDA2A    0.900000E-01   1.00800           0   0.00000       0.00000    
     19619 BUTH     250      BUTH     H7       HDA2A    0.900000E-01   1.00800           0   0.00000       0.00000    
     19620 BUTH     250      BUTH     H8       HDP1A    0.430000       1.00800           0   0.00000       0.00000    
     19621 BUTH     250      BUTH     H9       DUMH      0.00000       1.00800           0   0.00000       0.00000    
     19622 BUTH     250      BUTH     LPO11    LPDO1   -0.287000       0.00000          -1   0.00000       0.00000    
     19623 BUTH     250      BUTH     LPO12    LPDO1   -0.288000       0.00000          -1   0.00000       0.00000    
     19624 BUTH     250      BUTH     LPO21    LPD     -0.302000       0.00000          -1   0.00000       0.00000    
     19625 BUTH     250      BUTH     LPO22    LPD     -0.303000       0.00000          -1   0.00000       0.00000    
     19626 BUTH     251      BUTH     C1       CD33A     2.05990       11.6110           0  -1.81190       1.18670    
     19627 BUTH     251      BUTH     DC1      DRUD     -2.33590      0.400000           0   0.00000       0.00000    
     19628 BUTH     251      BUTH     C2       CD32A     2.02070       11.6110           0  -1.59660       1.16930    
     19629 BUTH     251      BUTH     DC2      DRUD     -2.19270      0.400000           0   0.00000       0.00000    
     19630 BUTH     251      BUTH     C3       CD32A     1.98270       11.6110           0  -1.59660       1.16930    
     19631 BUTH     251      BUTH     DC3      DRUD     -2.19270      0.400000           0   0.00000       0.00000    
     19632 BUTH     251      BUTH     C4       CD2O3A    2.72690       11.6110           0  -1.26130       1.05430    
     19633 BUTH     251      BUTH     DC4      DRUD     -1.94890      0.400000           0   0.00000       0.00000    
     19634 BUTH     251      BUTH     O1       OD2C1A    1.46540       15.5994           0 -0.713100      0.569800    
     19635 BUTH     251      BUTH     DO1      DRUD     -1.46540      0.400000           0   0.00000       0.00000    
     19636 BUTH     251      BUTH     O2       OD31A     1.58240       15.5990           0 -0.831500      0.749400    
     19637 BUTH     251      BUTH     DO2      DRUD     -1.58240      0.400000           0   0.00000       0.00000    
     19638 BUTH     251      BUTH     H1       HDA3A    0.900000E-01   1.00800           0   0.00000       0.00000    
     19639 BUTH     251      BUTH     H2       HDA3A    0.900000E-01   1.00800           0   0.00000       0.00000    
     19640 BUTH     251      BUTH     H3       HDA3A    0.900000E-01   1.00800           0   0.00000       0.00000    
     19641 BUTH     251      BUTH     H4       HDA2A    0.900000E-01   1.00800           0   0.00000       0.00000    
     19642 BUTH     251      BUTH     H5       HDA2A    0.900000E-01   1.00800           0   0.00000       0.00000    
     19643 BUTH     251      BUTH     H6       HDA2A    0.900000E-01   1.00800           0   0.00000       0.00000    
     19644 BUTH     251      BUTH     H7       HDA2A    0.900000E-01   1.00800           0   0.00000       0.00000    
     19645 BUTH     251      BUTH     H8       HDP1A    0.430000       1.00800           0   0.00000       0.00000    
     19646 BUTH     251      BUTH     H9       DUMH      0.00000       1.00800           0   0.00000       0.00000    
     19647 BUTH     251      BUTH     LPO11    LPDO1   -0.287000       0.00000          -1   0.00000       0.00000    
     19648 BUTH     251      BUTH     LPO12    LPDO1   -0.288000       0.00000          -1   0.00000       0.00000    
     19649 BUTH     251      BUTH     LPO21    LPD     -0.302000       0.00000          -1   0.00000       0.00000    
     19650 BUTH     251      BUTH     LPO22    LPD     -0.303000       0.00000          -1   0.00000       0.00000    
     19651 BUTH     252      BUTH     C1       CD33A     2.05990       11.6110           0  -1.81190       1.18670    
     19652 BUTH     252      BUTH     DC1      DRUD     -2.33590      0.400000           0   0.00000       0.00000    
     19653 BUTH     252      BUTH     C2       CD32A     2.02070       11.6110           0  -1.59660       1.16930    
     19654 BUTH     252      BUTH     DC2      DRUD     -2.19270      0.400000           0   0.00000       0.00000    
     19655 BUTH     252      BUTH     C3       CD32A     1.98270       11.6110           0  -1.59660       1.16930    
     19656 BUTH     252      BUTH     DC3      DRUD     -2.19270      0.400000           0   0.00000       0.00000    
     19657 BUTH     252      BUTH     C4       CD2O3A    2.72690       11.6110           0  -1.26130       1.05430    
     19658 BUTH     252      BUTH     DC4      DRUD     -1.94890      0.400000           0   0.00000       0.00000    
     19659 BUTH     252      BUTH     O1       OD2C1A    1.46540       15.5994           0 -0.713100      0.569800    
     19660 BUTH     252      BUTH     DO1      DRUD     -1.46540      0.400000           0   0.00000       0.00000    
     19661 BUTH     252      BUTH     O2       OD31A     1.58240       15.5990           0 -0.831500      0.749400    
     19662 BUTH     252      BUTH     DO2      DRUD     -1.58240      0.400000           0   0.00000       0.00000    
     19663 BUTH     252      BUTH     H1       HDA3A    0.900000E-01   1.00800           0   0.00000       0.00000    
     19664 BUTH     252      BUTH     H2       HDA3A    0.900000E-01   1.00800           0   0.00000       0.00000    
     19665 BUTH     252      BUTH     H3       HDA3A    0.900000E-01   1.00800           0   0.00000       0.00000    
     19666 BUTH     252      BUTH     H4       HDA2A    0.900000E-01   1.00800           0   0.00000       0.00000    
     19667 BUTH     252      BUTH     H5       HDA2A    0.900000E-01   1.00800           0   0.00000       0.00000    
     19668 BUTH     252      BUTH     H6       HDA2A    0.900000E-01   1.00800           0   0.00000       0.00000    
     19669 BUTH     252      BUTH     H7       HDA2A    0.900000E-01   1.00800           0   0.00000       0.00000    
     19670 BUTH     252      BUTH     H8       HDP1A    0.430000       1.00800           0   0.00000       0.00000    
     19671 BUTH     252      BUTH     H9       DUMH      0.00000       1.00800           0   0.00000       0.00000    
     19672 BUTH     252      BUTH     LPO11    LPDO1   -0.287000       0.00000          -1   0.00000       0.00000    
     19673 BUTH     252      BUTH     LPO12    LPDO1   -0.288000       0.00000          -1   0.00000       0.00000    
     19674 BUTH     252      BUTH     LPO21    LPD     -0.302000       0.00000          -1   0.00000       0.00000    
     19675 BUTH     252      BUTH     LPO22    LPD     -0.303000       0.00000          -1   0.00000       0.00000    
     19676 BUTH     253      BUTH     C1       CD33A     2.05990       11.6110           0  -1.81190       1.18670    
     19677 BUTH     253      BUTH     DC1      DRUD     -2.33590      0.400000           0   0.00000       0.00000    
     19678 BUTH     253      BUTH     C2       CD32A     2.02070       11.6110           0  -1.59660       1.16930    
     19679 BUTH     253      BUTH     DC2      DRUD     -2.19270      0.400000           0   0.00000       0.00000    
     19680 BUTH     253      BUTH     C3       CD32A     1.98270       11.6110           0  -1.59660       1.16930    
     19681 BUTH     253      BUTH     DC3      DRUD     -2.19270      0.400000           0   0.00000       0.00000    
     19682 BUTH     253      BUTH     C4       CD2O3A    2.72690       11.6110           0  -1.26130       1.05430    
     19683 BUTH     253      BUTH     DC4      DRUD     -1.94890      0.400000           0   0.00000       0.00000    
     19684 BUTH     253      BUTH     O1       OD2C1A    1.46540       15.5994           0 -0.713100      0.569800    
     19685 BUTH     253      BUTH     DO1      DRUD     -1.46540      0.400000           0   0.00000       0.00000    
     19686 BUTH     253      BUTH     O2       OD31A     1.58240       15.5990           0 -0.831500      0.749400    
     19687 BUTH     253      BUTH     DO2      DRUD     -1.58240      0.400000           0   0.00000       0.00000    
     19688 BUTH     253      BUTH     H1       HDA3A    0.900000E-01   1.00800           0   0.00000       0.00000    
     19689 BUTH     253      BUTH     H2       HDA3A    0.900000E-01   1.00800           0   0.00000       0.00000    
     19690 BUTH     253      BUTH     H3       HDA3A    0.900000E-01   1.00800           0   0.00000       0.00000    
     19691 BUTH     253      BUTH     H4       HDA2A    0.900000E-01   1.00800           0   0.00000       0.00000    
     19692 BUTH     253      BUTH     H5       HDA2A    0.900000E-01   1.00800           0   0.00000       0.00000    
     19693 BUTH     253      BUTH     H6       HDA2A    0.900000E-01   1.00800           0   0.00000       0.00000    
     19694 BUTH     253      BUTH     H7       HDA2A    0.900000E-01   1.00800           0   0.00000       0.00000    
     19695 BUTH     253      BUTH     H8       HDP1A    0.430000       1.00800           0   0.00000       0.00000    
     19696 BUTH     253      BUTH     H9       DUMH      0.00000       1.00800           0   0.00000       0.00000    
     19697 BUTH     253      BUTH     LPO11    LPDO1   -0.287000       0.00000          -1   0.00000       0.00000    
     19698 BUTH     253      BUTH     LPO12    LPDO1   -0.288000       0.00000          -1   0.00000       0.00000    
     19699 BUTH     253      BUTH     LPO21    LPD     -0.302000       0.00000          -1   0.00000       0.00000    
     19700 BUTH     253      BUTH     LPO22    LPD     -0.303000       0.00000          -1   0.00000       0.00000    
     19701 BUTH     254      BUTH     C1       CD33A     2.05990       11.6110           0  -1.81190       1.18670    
     19702 BUTH     254      BUTH     DC1      DRUD     -2.33590      0.400000           0   0.00000       0.00000    
     19703 BUTH     254      BUTH     C2       CD32A     2.02070       11.6110           0  -1.59660       1.16930    
     19704 BUTH     254      BUTH     DC2      DRUD     -2.19270      0.400000           0   0.00000       0.00000    
     19705 BUTH     254      BUTH     C3       CD32A     1.98270       11.6110           0  -1.59660       1.16930    
     19706 BUTH     254      BUTH     DC3      DRUD     -2.19270      0.400000           0   0.00000       0.00000    
     19707 BUTH     254      BUTH     C4       CD2O3A    2.72690       11.6110           0  -1.26130       1.05430    
     19708 BUTH     254      BUTH     DC4      DRUD     -1.94890      0.400000           0   0.00000       0.00000    
     19709 BUTH     254      BUTH     O1       OD2C1A    1.46540       15.5994           0 -0.713100      0.569800    
     19710 BUTH     254      BUTH     DO1      DRUD     -1.46540      0.400000           0   0.00000       0.00000    
     19711 BUTH     254      BUTH     O2       OD31A     1.58240       15.5990           0 -0.831500      0.749400    
     19712 BUTH     254      BUTH     DO2      DRUD     -1.58240      0.400000           0   0.00000       0.00000    
     19713 BUTH     254      BUTH     H1       HDA3A    0.900000E-01   1.00800           0   0.00000       0.00000    
     19714 BUTH     254      BUTH     H2       HDA3A    0.900000E-01   1.00800           0   0.00000       0.00000    
     19715 BUTH     254      BUTH     H3       HDA3A    0.900000E-01   1.00800           0   0.00000       0.00000    
     19716 BUTH     254      BUTH     H4       HDA2A    0.900000E-01   1.00800           0   0.00000       0.00000    
     19717 BUTH     254      BUTH     H5       HDA2A    0.900000E-01   1.00800           0   0.00000       0.00000    
     19718 BUTH     254      BUTH     H6       HDA2A    0.900000E-01   1.00800           0   0.00000       0.00000    
     19719 BUTH     254      BUTH     H7       HDA2A    0.900000E-01   1.00800           0   0.00000       0.00000    
     19720 BUTH     254      BUTH     H8       HDP1A    0.430000       1.00800           0   0.00000       0.00000    
     19721 BUTH     254      BUTH     H9       DUMH      0.00000       1.00800           0   0.00000       0.00000    
     19722 BUTH     254      BUTH     LPO11    LPDO1   -0.287000       0.00000          -1   0.00000       0.00000    
     19723 BUTH     254      BUTH     LPO12    LPDO1   -0.288000       0.00000          -1   0.00000       0.00000    
     19724 BUTH     254      BUTH     LPO21    LPD     -0.302000       0.00000          -1   0.00000       0.00000    
     19725 BUTH     254      BUTH     LPO22    LPD     -0.303000       0.00000          -1   0.00000       0.00000    
     19726 BUTH     255      BUTH     C1       CD33A     2.05990       11.6110           0  -1.81190       1.18670    
     19727 BUTH     255      BUTH     DC1      DRUD     -2.33590      0.400000           0   0.00000       0.00000    
     19728 BUTH     255      BUTH     C2       CD32A     2.02070       11.6110           0  -1.59660       1.16930    
     19729 BUTH     255      BUTH     DC2      DRUD     -2.19270      0.400000           0   0.00000       0.00000    
     19730 BUTH     255      BUTH     C3       CD32A     1.98270       11.6110           0  -1.59660       1.16930    
     19731 BUTH     255      BUTH     DC3      DRUD     -2.19270      0.400000           0   0.00000       0.00000    
     19732 BUTH     255      BUTH     C4       CD2O3A    2.72690       11.6110           0  -1.26130       1.05430    
     19733 BUTH     255      BUTH     DC4      DRUD     -1.94890      0.400000           0   0.00000       0.00000    
     19734 BUTH     255      BUTH     O1       OD2C1A    1.46540       15.5994           0 -0.713100      0.569800    
     19735 BUTH     255      BUTH     DO1      DRUD     -1.46540      0.400000           0   0.00000       0.00000    
     19736 BUTH     255      BUTH     O2       OD31A     1.58240       15.5990           0 -0.831500      0.749400    
     19737 BUTH     255      BUTH     DO2      DRUD     -1.58240      0.400000           0   0.00000       0.00000    
     19738 BUTH     255      BUTH     H1       HDA3A    0.900000E-01   1.00800           0   0.00000       0.00000    
     19739 BUTH     255      BUTH     H2       HDA3A    0.900000E-01   1.00800           0   0.00000       0.00000    
     19740 BUTH     255      BUTH     H3       HDA3A    0.900000E-01   1.00800           0   0.00000       0.00000    
     19741 BUTH     255      BUTH     H4       HDA2A    0.900000E-01   1.00800           0   0.00000       0.00000    
     19742 BUTH     255      BUTH     H5       HDA2A    0.900000E-01   1.00800           0   0.00000       0.00000    
     19743 BUTH     255      BUTH     H6       HDA2A    0.900000E-01   1.00800           0   0.00000       0.00000    
     19744 BUTH     255      BUTH     H7       HDA2A    0.900000E-01   1.00800           0   0.00000       0.00000    
     19745 BUTH     255      BUTH     H8       HDP1A    0.430000       1.00800           0   0.00000       0.00000    
     19746 BUTH     255      BUTH     H9       DUMH      0.00000       1.00800           0   0.00000       0.00000    
     19747 BUTH     255      BUTH     LPO11    LPDO1   -0.287000       0.00000          -1   0.00000       0.00000    
     19748 BUTH     255      BUTH     LPO12    LPDO1   -0.288000       0.00000          -1   0.00000       0.00000    
     19749 BUTH     255      BUTH     LPO21    LPD     -0.302000       0.00000          -1   0.00000       0.00000    
     19750 BUTH     255      BUTH     LPO22    LPD     -0.303000       0.00000          -1   0.00000       0.00000    
     19751 BUTH     256      BUTH     C1       CD33A     2.05990       11.6110           0  -1.81190       1.18670    
     19752 BUTH     256      BUTH     DC1      DRUD     -2.33590      0.400000           0   0.00000       0.00000    
     19753 BUTH     256      BUTH     C2       CD32A     2.02070       11.6110           0  -1.59660       1.16930    
     19754 BUTH     256      BUTH     DC2      DRUD     -2.19270      0.400000           0   0.00000       0.00000    
     19755 BUTH     256      BUTH     C3       CD32A     1.98270       11.6110           0  -1.59660       1.16930    
     19756 BUTH     256      BUTH     DC3      DRUD     -2.19270      0.400000           0   0.00000       0.00000    
     19757 BUTH     256      BUTH     C4       CD2O3A    2.72690       11.6110           0  -1.26130       1.05430    
     19758 BUTH     256      BUTH     DC4      DRUD     -1.94890      0.400000           0   0.00000       0.00000    
     19759 BUTH     256      BUTH     O1       OD2C1A    1.46540       15.5994           0 -0.713100      0.569800    
     19760 BUTH     256      BUTH     DO1      DRUD     -1.46540      0.400000           0   0.00000       0.00000    
     19761 BUTH     256      BUTH     O2       OD31A     1.58240       15.5990           0 -0.831500      0.749400    
     19762 BUTH     256      BUTH     DO2      DRUD     -1.58240      0.400000           0   0.00000       0.00000    
     19763 BUTH     256      BUTH     H1       HDA3A    0.900000E-01   1.00800           0   0.00000       0.00000    
     19764 BUTH     256      BUTH     H2       HDA3A    0.900000E-01   1.00800           0   0.00000       0.00000    
     19765 BUTH     256      BUTH     H3       HDA3A    0.900000E-01   1.00800           0   0.00000       0.00000    
     19766 BUTH     256      BUTH     H4       HDA2A    0.900000E-01   1.00800           0   0.00000       0.00000    
     19767 BUTH     256      BUTH     H5       HDA2A    0.900000E-01   1.00800           0   0.00000       0.00000    
     19768 BUTH     256      BUTH     H6       HDA2A    0.900000E-01   1.00800           0   0.00000       0.00000    
     19769 BUTH     256      BUTH     H7       HDA2A    0.900000E-01   1.00800           0   0.00000       0.00000    
     19770 BUTH     256      BUTH     H8       HDP1A    0.430000       1.00800           0   0.00000       0.00000    
     19771 BUTH     256      BUTH     H9       DUMH      0.00000       1.00800           0   0.00000       0.00000    
     19772 BUTH     256      BUTH     LPO11    LPDO1   -0.287000       0.00000          -1   0.00000       0.00000    
     19773 BUTH     256      BUTH     LPO12    LPDO1   -0.288000       0.00000          -1   0.00000       0.00000    
     19774 BUTH     256      BUTH     LPO21    LPD     -0.302000       0.00000          -1   0.00000       0.00000    
     19775 BUTH     256      BUTH     LPO22    LPD     -0.303000       0.00000          -1   0.00000       0.00000    
     19776 BUTH     257      BUTH     C1       CD33A     2.05990       11.6110           0  -1.81190       1.18670    
     19777 BUTH     257      BUTH     DC1      DRUD     -2.33590      0.400000           0   0.00000       0.00000    
     19778 BUTH     257      BUTH     C2       CD32A     2.02070       11.6110           0  -1.59660       1.16930    
     19779 BUTH     257      BUTH     DC2      DRUD     -2.19270      0.400000           0   0.00000       0.00000    
     19780 BUTH     257      BUTH     C3       CD32A     1.98270       11.6110           0  -1.59660       1.16930    
     19781 BUTH     257      BUTH     DC3      DRUD     -2.19270      0.400000           0   0.00000       0.00000    
     19782 BUTH     257      BUTH     C4       CD2O3A    2.72690       11.6110           0  -1.26130       1.05430    
     19783 BUTH     257      BUTH     DC4      DRUD     -1.94890      0.400000           0   0.00000       0.00000    
     19784 BUTH     257      BUTH     O1       OD2C1A    1.46540       15.5994           0 -0.713100      0.569800    
     19785 BUTH     257      BUTH     DO1      DRUD     -1.46540      0.400000           0   0.00000       0.00000    
     19786 BUTH     257      BUTH     O2       OD31A     1.58240       15.5990           0 -0.831500      0.749400    
     19787 BUTH     257      BUTH     DO2      DRUD     -1.58240      0.400000           0   0.00000       0.00000    
     19788 BUTH     257      BUTH     H1       HDA3A    0.900000E-01   1.00800           0   0.00000       0.00000    
     19789 BUTH     257      BUTH     H2       HDA3A    0.900000E-01   1.00800           0   0.00000       0.00000    
     19790 BUTH     257      BUTH     H3       HDA3A    0.900000E-01   1.00800           0   0.00000       0.00000    
     19791 BUTH     257      BUTH     H4       HDA2A    0.900000E-01   1.00800           0   0.00000       0.00000    
     19792 BUTH     257      BUTH     H5       HDA2A    0.900000E-01   1.00800           0   0.00000       0.00000    
     19793 BUTH     257      BUTH     H6       HDA2A    0.900000E-01   1.00800           0   0.00000       0.00000    
     19794 BUTH     257      BUTH     H7       HDA2A    0.900000E-01   1.00800           0   0.00000       0.00000    
     19795 BUTH     257      BUTH     H8       HDP1A    0.430000       1.00800           0   0.00000       0.00000    
     19796 BUTH     257      BUTH     H9       DUMH      0.00000       1.00800           0   0.00000       0.00000    
     19797 BUTH     257      BUTH     LPO11    LPDO1   -0.287000       0.00000          -1   0.00000       0.00000    
     19798 BUTH     257      BUTH     LPO12    LPDO1   -0.288000       0.00000          -1   0.00000       0.00000    
     19799 BUTH     257      BUTH     LPO21    LPD     -0.302000       0.00000          -1   0.00000       0.00000    
     19800 BUTH     257      BUTH     LPO22    LPD     -0.303000       0.00000          -1   0.00000       0.00000    
     19801 BUTH     258      BUTH     C1       CD33A     2.05990       11.6110           0  -1.81190       1.18670    
     19802 BUTH     258      BUTH     DC1      DRUD     -2.33590      0.400000           0   0.00000       0.00000    
     19803 BUTH     258      BUTH     C2       CD32A     2.02070       11.6110           0  -1.59660       1.16930    
     19804 BUTH     258      BUTH     DC2      DRUD     -2.19270      0.400000           0   0.00000       0.00000    
     19805 BUTH     258      BUTH     C3       CD32A     1.98270       11.6110           0  -1.59660       1.16930    
     19806 BUTH     258      BUTH     DC3      DRUD     -2.19270      0.400000           0   0.00000       0.00000    
     19807 BUTH     258      BUTH     C4       CD2O3A    2.72690       11.6110           0  -1.26130       1.05430    
     19808 BUTH     258      BUTH     DC4      DRUD     -1.94890      0.400000           0   0.00000       0.00000    
     19809 BUTH     258      BUTH     O1       OD2C1A    1.46540       15.5994           0 -0.713100      0.569800    
     19810 BUTH     258      BUTH     DO1      DRUD     -1.46540      0.400000           0   0.00000       0.00000    
     19811 BUTH     258      BUTH     O2       OD31A     1.58240       15.5990           0 -0.831500      0.749400    
     19812 BUTH     258      BUTH     DO2      DRUD     -1.58240      0.400000           0   0.00000       0.00000    
     19813 BUTH     258      BUTH     H1       HDA3A    0.900000E-01   1.00800           0   0.00000       0.00000    
     19814 BUTH     258      BUTH     H2       HDA3A    0.900000E-01   1.00800           0   0.00000       0.00000    
     19815 BUTH     258      BUTH     H3       HDA3A    0.900000E-01   1.00800           0   0.00000       0.00000    
     19816 BUTH     258      BUTH     H4       HDA2A    0.900000E-01   1.00800           0   0.00000       0.00000    
     19817 BUTH     258      BUTH     H5       HDA2A    0.900000E-01   1.00800           0   0.00000       0.00000    
     19818 BUTH     258      BUTH     H6       HDA2A    0.900000E-01   1.00800           0   0.00000       0.00000    
     19819 BUTH     258      BUTH     H7       HDA2A    0.900000E-01   1.00800           0   0.00000       0.00000    
     19820 BUTH     258      BUTH     H8       HDP1A    0.430000       1.00800           0   0.00000       0.00000    
     19821 BUTH     258      BUTH     H9       DUMH      0.00000       1.00800           0   0.00000       0.00000    
     19822 BUTH     258      BUTH     LPO11    LPDO1   -0.287000       0.00000          -1   0.00000       0.00000    
     19823 BUTH     258      BUTH     LPO12    LPDO1   -0.288000       0.00000          -1   0.00000       0.00000    
     19824 BUTH     258      BUTH     LPO21    LPD     -0.302000       0.00000          -1   0.00000       0.00000    
     19825 BUTH     258      BUTH     LPO22    LPD     -0.303000       0.00000          -1   0.00000       0.00000    
     19826 BUTH     259      BUTH     C1       CD33A     2.05990       11.6110           0  -1.81190       1.18670    
     19827 BUTH     259      BUTH     DC1      DRUD     -2.33590      0.400000           0   0.00000       0.00000    
     19828 BUTH     259      BUTH     C2       CD32A     2.02070       11.6110           0  -1.59660       1.16930    
     19829 BUTH     259      BUTH     DC2      DRUD     -2.19270      0.400000           0   0.00000       0.00000    
     19830 BUTH     259      BUTH     C3       CD32A     1.98270       11.6110           0  -1.59660       1.16930    
     19831 BUTH     259      BUTH     DC3      DRUD     -2.19270      0.400000           0   0.00000       0.00000    
     19832 BUTH     259      BUTH     C4       CD2O3A    2.72690       11.6110           0  -1.26130       1.05430    
     19833 BUTH     259      BUTH     DC4      DRUD     -1.94890      0.400000           0   0.00000       0.00000    
     19834 BUTH     259      BUTH     O1       OD2C1A    1.46540       15.5994           0 -0.713100      0.569800    
     19835 BUTH     259      BUTH     DO1      DRUD     -1.46540      0.400000           0   0.00000       0.00000    
     19836 BUTH     259      BUTH     O2       OD31A     1.58240       15.5990           0 -0.831500      0.749400    
     19837 BUTH     259      BUTH     DO2      DRUD     -1.58240      0.400000           0   0.00000       0.00000    
     19838 BUTH     259      BUTH     H1       HDA3A    0.900000E-01   1.00800           0   0.00000       0.00000    
     19839 BUTH     259      BUTH     H2       HDA3A    0.900000E-01   1.00800           0   0.00000       0.00000    
     19840 BUTH     259      BUTH     H3       HDA3A    0.900000E-01   1.00800           0   0.00000       0.00000    
     19841 BUTH     259      BUTH     H4       HDA2A    0.900000E-01   1.00800           0   0.00000       0.00000    
     19842 BUTH     259      BUTH     H5       HDA2A    0.900000E-01   1.00800           0   0.00000       0.00000    
     19843 BUTH     259      BUTH     H6       HDA2A    0.900000E-01   1.00800           0   0.00000       0.00000    
     19844 BUTH     259      BUTH     H7       HDA2A    0.900000E-01   1.00800           0   0.00000       0.00000    
     19845 BUTH     259      BUTH     H8       HDP1A    0.430000       1.00800           0   0.00000       0.00000    
     19846 BUTH     259      BUTH     H9       DUMH      0.00000       1.00800           0   0.00000       0.00000    
     19847 BUTH     259      BUTH     LPO11    LPDO1   -0.287000       0.00000          -1   0.00000       0.00000    
     19848 BUTH     259      BUTH     LPO12    LPDO1   -0.288000       0.00000          -1   0.00000       0.00000    
     19849 BUTH     259      BUTH     LPO21    LPD     -0.302000       0.00000          -1   0.00000       0.00000    
     19850 BUTH     259      BUTH     LPO22    LPD     -0.303000       0.00000          -1   0.00000       0.00000    
     19851 BUTH     260      BUTH     C1       CD33A     2.05990       11.6110           0  -1.81190       1.18670    
     19852 BUTH     260      BUTH     DC1      DRUD     -2.33590      0.400000           0   0.00000       0.00000    
     19853 BUTH     260      BUTH     C2       CD32A     2.02070       11.6110           0  -1.59660       1.16930    
     19854 BUTH     260      BUTH     DC2      DRUD     -2.19270      0.400000           0   0.00000       0.00000    
     19855 BUTH     260      BUTH     C3       CD32A     1.98270       11.6110           0  -1.59660       1.16930    
     19856 BUTH     260      BUTH     DC3      DRUD     -2.19270      0.400000           0   0.00000       0.00000    
     19857 BUTH     260      BUTH     C4       CD2O3A    2.72690       11.6110           0  -1.26130       1.05430    
     19858 BUTH     260      BUTH     DC4      DRUD     -1.94890      0.400000           0   0.00000       0.00000    
     19859 BUTH     260      BUTH     O1       OD2C1A    1.46540       15.5994           0 -0.713100      0.569800    
     19860 BUTH     260      BUTH     DO1      DRUD     -1.46540      0.400000           0   0.00000       0.00000    
     19861 BUTH     260      BUTH     O2       OD31A     1.58240       15.5990           0 -0.831500      0.749400    
     19862 BUTH     260      BUTH     DO2      DRUD     -1.58240      0.400000           0   0.00000       0.00000    
     19863 BUTH     260      BUTH     H1       HDA3A    0.900000E-01   1.00800           0   0.00000       0.00000    
     19864 BUTH     260      BUTH     H2       HDA3A    0.900000E-01   1.00800           0   0.00000       0.00000    
     19865 BUTH     260      BUTH     H3       HDA3A    0.900000E-01   1.00800           0   0.00000       0.00000    
     19866 BUTH     260      BUTH     H4       HDA2A    0.900000E-01   1.00800           0   0.00000       0.00000    
     19867 BUTH     260      BUTH     H5       HDA2A    0.900000E-01   1.00800           0   0.00000       0.00000    
     19868 BUTH     260      BUTH     H6       HDA2A    0.900000E-01   1.00800           0   0.00000       0.00000    
     19869 BUTH     260      BUTH     H7       HDA2A    0.900000E-01   1.00800           0   0.00000       0.00000    
     19870 BUTH     260      BUTH     H8       HDP1A    0.430000       1.00800           0   0.00000       0.00000    
     19871 BUTH     260      BUTH     H9       DUMH      0.00000       1.00800           0   0.00000       0.00000    
     19872 BUTH     260      BUTH     LPO11    LPDO1   -0.287000       0.00000          -1   0.00000       0.00000    
     19873 BUTH     260      BUTH     LPO12    LPDO1   -0.288000       0.00000          -1   0.00000       0.00000    
     19874 BUTH     260      BUTH     LPO21    LPD     -0.302000       0.00000          -1   0.00000       0.00000    
     19875 BUTH     260      BUTH     LPO22    LPD     -0.303000       0.00000          -1   0.00000       0.00000    
     19876 BUTH     261      BUTH     C1       CD33A     2.05990       11.6110           0  -1.81190       1.18670    
     19877 BUTH     261      BUTH     DC1      DRUD     -2.33590      0.400000           0   0.00000       0.00000    
     19878 BUTH     261      BUTH     C2       CD32A     2.02070       11.6110           0  -1.59660       1.16930    
     19879 BUTH     261      BUTH     DC2      DRUD     -2.19270      0.400000           0   0.00000       0.00000    
     19880 BUTH     261      BUTH     C3       CD32A     1.98270       11.6110           0  -1.59660       1.16930    
     19881 BUTH     261      BUTH     DC3      DRUD     -2.19270      0.400000           0   0.00000       0.00000    
     19882 BUTH     261      BUTH     C4       CD2O3A    2.72690       11.6110           0  -1.26130       1.05430    
     19883 BUTH     261      BUTH     DC4      DRUD     -1.94890      0.400000           0   0.00000       0.00000    
     19884 BUTH     261      BUTH     O1       OD2C1A    1.46540       15.5994           0 -0.713100      0.569800    
     19885 BUTH     261      BUTH     DO1      DRUD     -1.46540      0.400000           0   0.00000       0.00000    
     19886 BUTH     261      BUTH     O2       OD31A     1.58240       15.5990           0 -0.831500      0.749400    
     19887 BUTH     261      BUTH     DO2      DRUD     -1.58240      0.400000           0   0.00000       0.00000    
     19888 BUTH     261      BUTH     H1       HDA3A    0.900000E-01   1.00800           0   0.00000       0.00000    
     19889 BUTH     261      BUTH     H2       HDA3A    0.900000E-01   1.00800           0   0.00000       0.00000    
     19890 BUTH     261      BUTH     H3       HDA3A    0.900000E-01   1.00800           0   0.00000       0.00000    
     19891 BUTH     261      BUTH     H4       HDA2A    0.900000E-01   1.00800           0   0.00000       0.00000    
     19892 BUTH     261      BUTH     H5       HDA2A    0.900000E-01   1.00800           0   0.00000       0.00000    
     19893 BUTH     261      BUTH     H6       HDA2A    0.900000E-01   1.00800           0   0.00000       0.00000    
     19894 BUTH     261      BUTH     H7       HDA2A    0.900000E-01   1.00800           0   0.00000       0.00000    
     19895 BUTH     261      BUTH     H8       HDP1A    0.430000       1.00800           0   0.00000       0.00000    
     19896 BUTH     261      BUTH     H9       DUMH      0.00000       1.00800           0   0.00000       0.00000    
     19897 BUTH     261      BUTH     LPO11    LPDO1   -0.287000       0.00000          -1   0.00000       0.00000    
     19898 BUTH     261      BUTH     LPO12    LPDO1   -0.288000       0.00000          -1   0.00000       0.00000    
     19899 BUTH     261      BUTH     LPO21    LPD     -0.302000       0.00000          -1   0.00000       0.00000    
     19900 BUTH     261      BUTH     LPO22    LPD     -0.303000       0.00000          -1   0.00000       0.00000    
     19901 BUTH     262      BUTH     C1       CD33A     2.05990       11.6110           0  -1.81190       1.18670    
     19902 BUTH     262      BUTH     DC1      DRUD     -2.33590      0.400000           0   0.00000       0.00000    
     19903 BUTH     262      BUTH     C2       CD32A     2.02070       11.6110           0  -1.59660       1.16930    
     19904 BUTH     262      BUTH     DC2      DRUD     -2.19270      0.400000           0   0.00000       0.00000    
     19905 BUTH     262      BUTH     C3       CD32A     1.98270       11.6110           0  -1.59660       1.16930    
     19906 BUTH     262      BUTH     DC3      DRUD     -2.19270      0.400000           0   0.00000       0.00000    
     19907 BUTH     262      BUTH     C4       CD2O3A    2.72690       11.6110           0  -1.26130       1.05430    
     19908 BUTH     262      BUTH     DC4      DRUD     -1.94890      0.400000           0   0.00000       0.00000    
     19909 BUTH     262      BUTH     O1       OD2C1A    1.46540       15.5994           0 -0.713100      0.569800    
     19910 BUTH     262      BUTH     DO1      DRUD     -1.46540      0.400000           0   0.00000       0.00000    
     19911 BUTH     262      BUTH     O2       OD31A     1.58240       15.5990           0 -0.831500      0.749400    
     19912 BUTH     262      BUTH     DO2      DRUD     -1.58240      0.400000           0   0.00000       0.00000    
     19913 BUTH     262      BUTH     H1       HDA3A    0.900000E-01   1.00800           0   0.00000       0.00000    
     19914 BUTH     262      BUTH     H2       HDA3A    0.900000E-01   1.00800           0   0.00000       0.00000    
     19915 BUTH     262      BUTH     H3       HDA3A    0.900000E-01   1.00800           0   0.00000       0.00000    
     19916 BUTH     262      BUTH     H4       HDA2A    0.900000E-01   1.00800           0   0.00000       0.00000    
     19917 BUTH     262      BUTH     H5       HDA2A    0.900000E-01   1.00800           0   0.00000       0.00000    
     19918 BUTH     262      BUTH     H6       HDA2A    0.900000E-01   1.00800           0   0.00000       0.00000    
     19919 BUTH     262      BUTH     H7       HDA2A    0.900000E-01   1.00800           0   0.00000       0.00000    
     19920 BUTH     262      BUTH     H8       HDP1A    0.430000       1.00800           0   0.00000       0.00000    
     19921 BUTH     262      BUTH     H9       DUMH      0.00000       1.00800           0   0.00000       0.00000    
     19922 BUTH     262      BUTH     LPO11    LPDO1   -0.287000       0.00000          -1   0.00000       0.00000    
     19923 BUTH     262      BUTH     LPO12    LPDO1   -0.288000       0.00000          -1   0.00000       0.00000    
     19924 BUTH     262      BUTH     LPO21    LPD     -0.302000       0.00000          -1   0.00000       0.00000    
     19925 BUTH     262      BUTH     LPO22    LPD     -0.303000       0.00000          -1   0.00000       0.00000    
     19926 BUTH     263      BUTH     C1       CD33A     2.05990       11.6110           0  -1.81190       1.18670    
     19927 BUTH     263      BUTH     DC1      DRUD     -2.33590      0.400000           0   0.00000       0.00000    
     19928 BUTH     263      BUTH     C2       CD32A     2.02070       11.6110           0  -1.59660       1.16930    
     19929 BUTH     263      BUTH     DC2      DRUD     -2.19270      0.400000           0   0.00000       0.00000    
     19930 BUTH     263      BUTH     C3       CD32A     1.98270       11.6110           0  -1.59660       1.16930    
     19931 BUTH     263      BUTH     DC3      DRUD     -2.19270      0.400000           0   0.00000       0.00000    
     19932 BUTH     263      BUTH     C4       CD2O3A    2.72690       11.6110           0  -1.26130       1.05430    
     19933 BUTH     263      BUTH     DC4      DRUD     -1.94890      0.400000           0   0.00000       0.00000    
     19934 BUTH     263      BUTH     O1       OD2C1A    1.46540       15.5994           0 -0.713100      0.569800    
     19935 BUTH     263      BUTH     DO1      DRUD     -1.46540      0.400000           0   0.00000       0.00000    
     19936 BUTH     263      BUTH     O2       OD31A     1.58240       15.5990           0 -0.831500      0.749400    
     19937 BUTH     263      BUTH     DO2      DRUD     -1.58240      0.400000           0   0.00000       0.00000    
     19938 BUTH     263      BUTH     H1       HDA3A    0.900000E-01   1.00800           0   0.00000       0.00000    
     19939 BUTH     263      BUTH     H2       HDA3A    0.900000E-01   1.00800           0   0.00000       0.00000    
     19940 BUTH     263      BUTH     H3       HDA3A    0.900000E-01   1.00800           0   0.00000       0.00000    
     19941 BUTH     263      BUTH     H4       HDA2A    0.900000E-01   1.00800           0   0.00000       0.00000    
     19942 BUTH     263      BUTH     H5       HDA2A    0.900000E-01   1.00800           0   0.00000       0.00000    
     19943 BUTH     263      BUTH     H6       HDA2A    0.900000E-01   1.00800           0   0.00000       0.00000    
     19944 BUTH     263      BUTH     H7       HDA2A    0.900000E-01   1.00800           0   0.00000       0.00000    
     19945 BUTH     263      BUTH     H8       HDP1A    0.430000       1.00800           0   0.00000       0.00000    
     19946 BUTH     263      BUTH     H9       DUMH      0.00000       1.00800           0   0.00000       0.00000    
     19947 BUTH     263      BUTH     LPO11    LPDO1   -0.287000       0.00000          -1   0.00000       0.00000    
     19948 BUTH     263      BUTH     LPO12    LPDO1   -0.288000       0.00000          -1   0.00000       0.00000    
     19949 BUTH     263      BUTH     LPO21    LPD     -0.302000       0.00000          -1   0.00000       0.00000    
     19950 BUTH     263      BUTH     LPO22    LPD     -0.303000       0.00000          -1   0.00000       0.00000    
     19951 BUTH     264      BUTH     C1       CD33A     2.05990       11.6110           0  -1.81190       1.18670    
     19952 BUTH     264      BUTH     DC1      DRUD     -2.33590      0.400000           0   0.00000       0.00000    
     19953 BUTH     264      BUTH     C2       CD32A     2.02070       11.6110           0  -1.59660       1.16930    
     19954 BUTH     264      BUTH     DC2      DRUD     -2.19270      0.400000           0   0.00000       0.00000    
     19955 BUTH     264      BUTH     C3       CD32A     1.98270       11.6110           0  -1.59660       1.16930    
     19956 BUTH     264      BUTH     DC3      DRUD     -2.19270      0.400000           0   0.00000       0.00000    
     19957 BUTH     264      BUTH     C4       CD2O3A    2.72690       11.6110           0  -1.26130       1.05430    
     19958 BUTH     264      BUTH     DC4      DRUD     -1.94890      0.400000           0   0.00000       0.00000    
     19959 BUTH     264      BUTH     O1       OD2C1A    1.46540       15.5994           0 -0.713100      0.569800    
     19960 BUTH     264      BUTH     DO1      DRUD     -1.46540      0.400000           0   0.00000       0.00000    
     19961 BUTH     264      BUTH     O2       OD31A     1.58240       15.5990           0 -0.831500      0.749400    
     19962 BUTH     264      BUTH     DO2      DRUD     -1.58240      0.400000           0   0.00000       0.00000    
     19963 BUTH     264      BUTH     H1       HDA3A    0.900000E-01   1.00800           0   0.00000       0.00000    
     19964 BUTH     264      BUTH     H2       HDA3A    0.900000E-01   1.00800           0   0.00000       0.00000    
     19965 BUTH     264      BUTH     H3       HDA3A    0.900000E-01   1.00800           0   0.00000       0.00000    
     19966 BUTH     264      BUTH     H4       HDA2A    0.900000E-01   1.00800           0   0.00000       0.00000    
     19967 BUTH     264      BUTH     H5       HDA2A    0.900000E-01   1.00800           0   0.00000       0.00000    
     19968 BUTH     264      BUTH     H6       HDA2A    0.900000E-01   1.00800           0   0.00000       0.00000    
     19969 BUTH     264      BUTH     H7       HDA2A    0.900000E-01   1.00800           0   0.00000       0.00000    
     19970 BUTH     264      BUTH     H8       HDP1A    0.430000       1.00800           0   0.00000       0.00000    
     19971 BUTH     264      BUTH     H9       DUMH      0.00000       1.00800           0   0.00000       0.00000    
     19972 BUTH     264      BUTH     LPO11    LPDO1   -0.287000       0.00000          -1   0.00000       0.00000    
     19973 BUTH     264      BUTH     LPO12    LPDO1   -0.288000       0.00000          -1   0.00000       0.00000    
     19974 BUTH     264      BUTH     LPO21    LPD     -0.302000       0.00000          -1   0.00000       0.00000    
     19975 BUTH     264      BUTH     LPO22    LPD     -0.303000       0.00000          -1   0.00000       0.00000    
     19976 BUTH     265      BUTH     C1       CD33A     2.05990       11.6110           0  -1.81190       1.18670    
     19977 BUTH     265      BUTH     DC1      DRUD     -2.33590      0.400000           0   0.00000       0.00000    
     19978 BUTH     265      BUTH     C2       CD32A     2.02070       11.6110           0  -1.59660       1.16930    
     19979 BUTH     265      BUTH     DC2      DRUD     -2.19270      0.400000           0   0.00000       0.00000    
     19980 BUTH     265      BUTH     C3       CD32A     1.98270       11.6110           0  -1.59660       1.16930    
     19981 BUTH     265      BUTH     DC3      DRUD     -2.19270      0.400000           0   0.00000       0.00000    
     19982 BUTH     265      BUTH     C4       CD2O3A    2.72690       11.6110           0  -1.26130       1.05430    
     19983 BUTH     265      BUTH     DC4      DRUD     -1.94890      0.400000           0   0.00000       0.00000    
     19984 BUTH     265      BUTH     O1       OD2C1A    1.46540       15.5994           0 -0.713100      0.569800    
     19985 BUTH     265      BUTH     DO1      DRUD     -1.46540      0.400000           0   0.00000       0.00000    
     19986 BUTH     265      BUTH     O2       OD31A     1.58240       15.5990           0 -0.831500      0.749400    
     19987 BUTH     265      BUTH     DO2      DRUD     -1.58240      0.400000           0   0.00000       0.00000    
     19988 BUTH     265      BUTH     H1       HDA3A    0.900000E-01   1.00800           0   0.00000       0.00000    
     19989 BUTH     265      BUTH     H2       HDA3A    0.900000E-01   1.00800           0   0.00000       0.00000    
     19990 BUTH     265      BUTH     H3       HDA3A    0.900000E-01   1.00800           0   0.00000       0.00000    
     19991 BUTH     265      BUTH     H4       HDA2A    0.900000E-01   1.00800           0   0.00000       0.00000    
     19992 BUTH     265      BUTH     H5       HDA2A    0.900000E-01   1.00800           0   0.00000       0.00000    
     19993 BUTH     265      BUTH     H6       HDA2A    0.900000E-01   1.00800           0   0.00000       0.00000    
     19994 BUTH     265      BUTH     H7       HDA2A    0.900000E-01   1.00800           0   0.00000       0.00000    
     19995 BUTH     265      BUTH     H8       HDP1A    0.430000       1.00800           0   0.00000       0.00000    
     19996 BUTH     265      BUTH     H9       DUMH      0.00000       1.00800           0   0.00000       0.00000    
     19997 BUTH     265      BUTH     LPO11    LPDO1   -0.287000       0.00000          -1   0.00000       0.00000    
     19998 BUTH     265      BUTH     LPO12    LPDO1   -0.288000       0.00000          -1   0.00000       0.00000    
     19999 BUTH     265      BUTH     LPO21    LPD     -0.302000       0.00000          -1   0.00000       0.00000    
     20000 BUTH     265      BUTH     LPO22    LPD     -0.303000       0.00000          -1   0.00000       0.00000    
     20001 BUTH     266      BUTH     C1       CD33A     2.05990       11.6110           0  -1.81190       1.18670    
     20002 BUTH     266      BUTH     DC1      DRUD     -2.33590      0.400000           0   0.00000       0.00000    
     20003 BUTH     266      BUTH     C2       CD32A     2.02070       11.6110           0  -1.59660       1.16930    
     20004 BUTH     266      BUTH     DC2      DRUD     -2.19270      0.400000           0   0.00000       0.00000    
     20005 BUTH     266      BUTH     C3       CD32A     1.98270       11.6110           0  -1.59660       1.16930    
     20006 BUTH     266      BUTH     DC3      DRUD     -2.19270      0.400000           0   0.00000       0.00000    
     20007 BUTH     266      BUTH     C4       CD2O3A    2.72690       11.6110           0  -1.26130       1.05430    
     20008 BUTH     266      BUTH     DC4      DRUD     -1.94890      0.400000           0   0.00000       0.00000    
     20009 BUTH     266      BUTH     O1       OD2C1A    1.46540       15.5994           0 -0.713100      0.569800    
     20010 BUTH     266      BUTH     DO1      DRUD     -1.46540      0.400000           0   0.00000       0.00000    
     20011 BUTH     266      BUTH     O2       OD31A     1.58240       15.5990           0 -0.831500      0.749400    
     20012 BUTH     266      BUTH     DO2      DRUD     -1.58240      0.400000           0   0.00000       0.00000    
     20013 BUTH     266      BUTH     H1       HDA3A    0.900000E-01   1.00800           0   0.00000       0.00000    
     20014 BUTH     266      BUTH     H2       HDA3A    0.900000E-01   1.00800           0   0.00000       0.00000    
     20015 BUTH     266      BUTH     H3       HDA3A    0.900000E-01   1.00800           0   0.00000       0.00000    
     20016 BUTH     266      BUTH     H4       HDA2A    0.900000E-01   1.00800           0   0.00000       0.00000    
     20017 BUTH     266      BUTH     H5       HDA2A    0.900000E-01   1.00800           0   0.00000       0.00000    
     20018 BUTH     266      BUTH     H6       HDA2A    0.900000E-01   1.00800           0   0.00000       0.00000    
     20019 BUTH     266      BUTH     H7       HDA2A    0.900000E-01   1.00800           0   0.00000       0.00000    
     20020 BUTH     266      BUTH     H8       HDP1A    0.430000       1.00800           0   0.00000       0.00000    
     20021 BUTH     266      BUTH     H9       DUMH      0.00000       1.00800           0   0.00000       0.00000    
     20022 BUTH     266      BUTH     LPO11    LPDO1   -0.287000       0.00000          -1   0.00000       0.00000    
     20023 BUTH     266      BUTH     LPO12    LPDO1   -0.288000       0.00000          -1   0.00000       0.00000    
     20024 BUTH     266      BUTH     LPO21    LPD     -0.302000       0.00000          -1   0.00000       0.00000    
     20025 BUTH     266      BUTH     LPO22    LPD     -0.303000       0.00000          -1   0.00000       0.00000    
     20026 BUTH     267      BUTH     C1       CD33A     2.05990       11.6110           0  -1.81190       1.18670    
     20027 BUTH     267      BUTH     DC1      DRUD     -2.33590      0.400000           0   0.00000       0.00000    
     20028 BUTH     267      BUTH     C2       CD32A     2.02070       11.6110           0  -1.59660       1.16930    
     20029 BUTH     267      BUTH     DC2      DRUD     -2.19270      0.400000           0   0.00000       0.00000    
     20030 BUTH     267      BUTH     C3       CD32A     1.98270       11.6110           0  -1.59660       1.16930    
     20031 BUTH     267      BUTH     DC3      DRUD     -2.19270      0.400000           0   0.00000       0.00000    
     20032 BUTH     267      BUTH     C4       CD2O3A    2.72690       11.6110           0  -1.26130       1.05430    
     20033 BUTH     267      BUTH     DC4      DRUD     -1.94890      0.400000           0   0.00000       0.00000    
     20034 BUTH     267      BUTH     O1       OD2C1A    1.46540       15.5994           0 -0.713100      0.569800    
     20035 BUTH     267      BUTH     DO1      DRUD     -1.46540      0.400000           0   0.00000       0.00000    
     20036 BUTH     267      BUTH     O2       OD31A     1.58240       15.5990           0 -0.831500      0.749400    
     20037 BUTH     267      BUTH     DO2      DRUD     -1.58240      0.400000           0   0.00000       0.00000    
     20038 BUTH     267      BUTH     H1       HDA3A    0.900000E-01   1.00800           0   0.00000       0.00000    
     20039 BUTH     267      BUTH     H2       HDA3A    0.900000E-01   1.00800           0   0.00000       0.00000    
     20040 BUTH     267      BUTH     H3       HDA3A    0.900000E-01   1.00800           0   0.00000       0.00000    
     20041 BUTH     267      BUTH     H4       HDA2A    0.900000E-01   1.00800           0   0.00000       0.00000    
     20042 BUTH     267      BUTH     H5       HDA2A    0.900000E-01   1.00800           0   0.00000       0.00000    
     20043 BUTH     267      BUTH     H6       HDA2A    0.900000E-01   1.00800           0   0.00000       0.00000    
     20044 BUTH     267      BUTH     H7       HDA2A    0.900000E-01   1.00800           0   0.00000       0.00000    
     20045 BUTH     267      BUTH     H8       HDP1A    0.430000       1.00800           0   0.00000       0.00000    
     20046 BUTH     267      BUTH     H9       DUMH      0.00000       1.00800           0   0.00000       0.00000    
     20047 BUTH     267      BUTH     LPO11    LPDO1   -0.287000       0.00000          -1   0.00000       0.00000    
     20048 BUTH     267      BUTH     LPO12    LPDO1   -0.288000       0.00000          -1   0.00000       0.00000    
     20049 BUTH     267      BUTH     LPO21    LPD     -0.302000       0.00000          -1   0.00000       0.00000    
     20050 BUTH     267      BUTH     LPO22    LPD     -0.303000       0.00000          -1   0.00000       0.00000    
     20051 BUTH     268      BUTH     C1       CD33A     2.05990       11.6110           0  -1.81190       1.18670    
     20052 BUTH     268      BUTH     DC1      DRUD     -2.33590      0.400000           0   0.00000       0.00000    
     20053 BUTH     268      BUTH     C2       CD32A     2.02070       11.6110           0  -1.59660       1.16930    
     20054 BUTH     268      BUTH     DC2      DRUD     -2.19270      0.400000           0   0.00000       0.00000    
     20055 BUTH     268      BUTH     C3       CD32A     1.98270       11.6110           0  -1.59660       1.16930    
     20056 BUTH     268      BUTH     DC3      DRUD     -2.19270      0.400000           0   0.00000       0.00000    
     20057 BUTH     268      BUTH     C4       CD2O3A    2.72690       11.6110           0  -1.26130       1.05430    
     20058 BUTH     268      BUTH     DC4      DRUD     -1.94890      0.400000           0   0.00000       0.00000    
     20059 BUTH     268      BUTH     O1       OD2C1A    1.46540       15.5994           0 -0.713100      0.569800    
     20060 BUTH     268      BUTH     DO1      DRUD     -1.46540      0.400000           0   0.00000       0.00000    
     20061 BUTH     268      BUTH     O2       OD31A     1.58240       15.5990           0 -0.831500      0.749400    
     20062 BUTH     268      BUTH     DO2      DRUD     -1.58240      0.400000           0   0.00000       0.00000    
     20063 BUTH     268      BUTH     H1       HDA3A    0.900000E-01   1.00800           0   0.00000       0.00000    
     20064 BUTH     268      BUTH     H2       HDA3A    0.900000E-01   1.00800           0   0.00000       0.00000    
     20065 BUTH     268      BUTH     H3       HDA3A    0.900000E-01   1.00800           0   0.00000       0.00000    
     20066 BUTH     268      BUTH     H4       HDA2A    0.900000E-01   1.00800           0   0.00000       0.00000    
     20067 BUTH     268      BUTH     H5       HDA2A    0.900000E-01   1.00800           0   0.00000       0.00000    
     20068 BUTH     268      BUTH     H6       HDA2A    0.900000E-01   1.00800           0   0.00000       0.00000    
     20069 BUTH     268      BUTH     H7       HDA2A    0.900000E-01   1.00800           0   0.00000       0.00000    
     20070 BUTH     268      BUTH     H8       HDP1A    0.430000       1.00800           0   0.00000       0.00000    
     20071 BUTH     268      BUTH     H9       DUMH      0.00000       1.00800           0   0.00000       0.00000    
     20072 BUTH     268      BUTH     LPO11    LPDO1   -0.287000       0.00000          -1   0.00000       0.00000    
     20073 BUTH     268      BUTH     LPO12    LPDO1   -0.288000       0.00000          -1   0.00000       0.00000    
     20074 BUTH     268      BUTH     LPO21    LPD     -0.302000       0.00000          -1   0.00000       0.00000    
     20075 BUTH     268      BUTH     LPO22    LPD     -0.303000       0.00000          -1   0.00000       0.00000    
     20076 BUTH     269      BUTH     C1       CD33A     2.05990       11.6110           0  -1.81190       1.18670    
     20077 BUTH     269      BUTH     DC1      DRUD     -2.33590      0.400000           0   0.00000       0.00000    
     20078 BUTH     269      BUTH     C2       CD32A     2.02070       11.6110           0  -1.59660       1.16930    
     20079 BUTH     269      BUTH     DC2      DRUD     -2.19270      0.400000           0   0.00000       0.00000    
     20080 BUTH     269      BUTH     C3       CD32A     1.98270       11.6110           0  -1.59660       1.16930    
     20081 BUTH     269      BUTH     DC3      DRUD     -2.19270      0.400000           0   0.00000       0.00000    
     20082 BUTH     269      BUTH     C4       CD2O3A    2.72690       11.6110           0  -1.26130       1.05430    
     20083 BUTH     269      BUTH     DC4      DRUD     -1.94890      0.400000           0   0.00000       0.00000    
     20084 BUTH     269      BUTH     O1       OD2C1A    1.46540       15.5994           0 -0.713100      0.569800    
     20085 BUTH     269      BUTH     DO1      DRUD     -1.46540      0.400000           0   0.00000       0.00000    
     20086 BUTH     269      BUTH     O2       OD31A     1.58240       15.5990           0 -0.831500      0.749400    
     20087 BUTH     269      BUTH     DO2      DRUD     -1.58240      0.400000           0   0.00000       0.00000    
     20088 BUTH     269      BUTH     H1       HDA3A    0.900000E-01   1.00800           0   0.00000       0.00000    
     20089 BUTH     269      BUTH     H2       HDA3A    0.900000E-01   1.00800           0   0.00000       0.00000    
     20090 BUTH     269      BUTH     H3       HDA3A    0.900000E-01   1.00800           0   0.00000       0.00000    
     20091 BUTH     269      BUTH     H4       HDA2A    0.900000E-01   1.00800           0   0.00000       0.00000    
     20092 BUTH     269      BUTH     H5       HDA2A    0.900000E-01   1.00800           0   0.00000       0.00000    
     20093 BUTH     269      BUTH     H6       HDA2A    0.900000E-01   1.00800           0   0.00000       0.00000    
     20094 BUTH     269      BUTH     H7       HDA2A    0.900000E-01   1.00800           0   0.00000       0.00000    
     20095 BUTH     269      BUTH     H8       HDP1A    0.430000       1.00800           0   0.00000       0.00000    
     20096 BUTH     269      BUTH     H9       DUMH      0.00000       1.00800           0   0.00000       0.00000    
     20097 BUTH     269      BUTH     LPO11    LPDO1   -0.287000       0.00000          -1   0.00000       0.00000    
     20098 BUTH     269      BUTH     LPO12    LPDO1   -0.288000       0.00000          -1   0.00000       0.00000    
     20099 BUTH     269      BUTH     LPO21    LPD     -0.302000       0.00000          -1   0.00000       0.00000    
     20100 BUTH     269      BUTH     LPO22    LPD     -0.303000       0.00000          -1   0.00000       0.00000    
     20101 BUTH     270      BUTH     C1       CD33A     2.05990       11.6110           0  -1.81190       1.18670    
     20102 BUTH     270      BUTH     DC1      DRUD     -2.33590      0.400000           0   0.00000       0.00000    
     20103 BUTH     270      BUTH     C2       CD32A     2.02070       11.6110           0  -1.59660       1.16930    
     20104 BUTH     270      BUTH     DC2      DRUD     -2.19270      0.400000           0   0.00000       0.00000    
     20105 BUTH     270      BUTH     C3       CD32A     1.98270       11.6110           0  -1.59660       1.16930    
     20106 BUTH     270      BUTH     DC3      DRUD     -2.19270      0.400000           0   0.00000       0.00000    
     20107 BUTH     270      BUTH     C4       CD2O3A    2.72690       11.6110           0  -1.26130       1.05430    
     20108 BUTH     270      BUTH     DC4      DRUD     -1.94890      0.400000           0   0.00000       0.00000    
     20109 BUTH     270      BUTH     O1       OD2C1A    1.46540       15.5994           0 -0.713100      0.569800    
     20110 BUTH     270      BUTH     DO1      DRUD     -1.46540      0.400000           0   0.00000       0.00000    
     20111 BUTH     270      BUTH     O2       OD31A     1.58240       15.5990           0 -0.831500      0.749400    
     20112 BUTH     270      BUTH     DO2      DRUD     -1.58240      0.400000           0   0.00000       0.00000    
     20113 BUTH     270      BUTH     H1       HDA3A    0.900000E-01   1.00800           0   0.00000       0.00000    
     20114 BUTH     270      BUTH     H2       HDA3A    0.900000E-01   1.00800           0   0.00000       0.00000    
     20115 BUTH     270      BUTH     H3       HDA3A    0.900000E-01   1.00800           0   0.00000       0.00000    
     20116 BUTH     270      BUTH     H4       HDA2A    0.900000E-01   1.00800           0   0.00000       0.00000    
     20117 BUTH     270      BUTH     H5       HDA2A    0.900000E-01   1.00800           0   0.00000       0.00000    
     20118 BUTH     270      BUTH     H6       HDA2A    0.900000E-01   1.00800           0   0.00000       0.00000    
     20119 BUTH     270      BUTH     H7       HDA2A    0.900000E-01   1.00800           0   0.00000       0.00000    
     20120 BUTH     270      BUTH     H8       HDP1A    0.430000       1.00800           0   0.00000       0.00000    
     20121 BUTH     270      BUTH     H9       DUMH      0.00000       1.00800           0   0.00000       0.00000    
     20122 BUTH     270      BUTH     LPO11    LPDO1   -0.287000       0.00000          -1   0.00000       0.00000    
     20123 BUTH     270      BUTH     LPO12    LPDO1   -0.288000       0.00000          -1   0.00000       0.00000    
     20124 BUTH     270      BUTH     LPO21    LPD     -0.302000       0.00000          -1   0.00000       0.00000    
     20125 BUTH     270      BUTH     LPO22    LPD     -0.303000       0.00000          -1   0.00000       0.00000    
     20126 BUTH     271      BUTH     C1       CD33A     2.05990       11.6110           0  -1.81190       1.18670    
     20127 BUTH     271      BUTH     DC1      DRUD     -2.33590      0.400000           0   0.00000       0.00000    
     20128 BUTH     271      BUTH     C2       CD32A     2.02070       11.6110           0  -1.59660       1.16930    
     20129 BUTH     271      BUTH     DC2      DRUD     -2.19270      0.400000           0   0.00000       0.00000    
     20130 BUTH     271      BUTH     C3       CD32A     1.98270       11.6110           0  -1.59660       1.16930    
     20131 BUTH     271      BUTH     DC3      DRUD     -2.19270      0.400000           0   0.00000       0.00000    
     20132 BUTH     271      BUTH     C4       CD2O3A    2.72690       11.6110           0  -1.26130       1.05430    
     20133 BUTH     271      BUTH     DC4      DRUD     -1.94890      0.400000           0   0.00000       0.00000    
     20134 BUTH     271      BUTH     O1       OD2C1A    1.46540       15.5994           0 -0.713100      0.569800    
     20135 BUTH     271      BUTH     DO1      DRUD     -1.46540      0.400000           0   0.00000       0.00000    
     20136 BUTH     271      BUTH     O2       OD31A     1.58240       15.5990           0 -0.831500      0.749400    
     20137 BUTH     271      BUTH     DO2      DRUD     -1.58240      0.400000           0   0.00000       0.00000    
     20138 BUTH     271      BUTH     H1       HDA3A    0.900000E-01   1.00800           0   0.00000       0.00000    
     20139 BUTH     271      BUTH     H2       HDA3A    0.900000E-01   1.00800           0   0.00000       0.00000    
     20140 BUTH     271      BUTH     H3       HDA3A    0.900000E-01   1.00800           0   0.00000       0.00000    
     20141 BUTH     271      BUTH     H4       HDA2A    0.900000E-01   1.00800           0   0.00000       0.00000    
     20142 BUTH     271      BUTH     H5       HDA2A    0.900000E-01   1.00800           0   0.00000       0.00000    
     20143 BUTH     271      BUTH     H6       HDA2A    0.900000E-01   1.00800           0   0.00000       0.00000    
     20144 BUTH     271      BUTH     H7       HDA2A    0.900000E-01   1.00800           0   0.00000       0.00000    
     20145 BUTH     271      BUTH     H8       HDP1A    0.430000       1.00800           0   0.00000       0.00000    
     20146 BUTH     271      BUTH     H9       DUMH      0.00000       1.00800           0   0.00000       0.00000    
     20147 BUTH     271      BUTH     LPO11    LPDO1   -0.287000       0.00000          -1   0.00000       0.00000    
     20148 BUTH     271      BUTH     LPO12    LPDO1   -0.288000       0.00000          -1   0.00000       0.00000    
     20149 BUTH     271      BUTH     LPO21    LPD     -0.302000       0.00000          -1   0.00000       0.00000    
     20150 BUTH     271      BUTH     LPO22    LPD     -0.303000       0.00000          -1   0.00000       0.00000    
     20151 BUTH     272      BUTH     C1       CD33A     2.05990       11.6110           0  -1.81190       1.18670    
     20152 BUTH     272      BUTH     DC1      DRUD     -2.33590      0.400000           0   0.00000       0.00000    
     20153 BUTH     272      BUTH     C2       CD32A     2.02070       11.6110           0  -1.59660       1.16930    
     20154 BUTH     272      BUTH     DC2      DRUD     -2.19270      0.400000           0   0.00000       0.00000    
     20155 BUTH     272      BUTH     C3       CD32A     1.98270       11.6110           0  -1.59660       1.16930    
     20156 BUTH     272      BUTH     DC3      DRUD     -2.19270      0.400000           0   0.00000       0.00000    
     20157 BUTH     272      BUTH     C4       CD2O3A    2.72690       11.6110           0  -1.26130       1.05430    
     20158 BUTH     272      BUTH     DC4      DRUD     -1.94890      0.400000           0   0.00000       0.00000    
     20159 BUTH     272      BUTH     O1       OD2C1A    1.46540       15.5994           0 -0.713100      0.569800    
     20160 BUTH     272      BUTH     DO1      DRUD     -1.46540      0.400000           0   0.00000       0.00000    
     20161 BUTH     272      BUTH     O2       OD31A     1.58240       15.5990           0 -0.831500      0.749400    
     20162 BUTH     272      BUTH     DO2      DRUD     -1.58240      0.400000           0   0.00000       0.00000    
     20163 BUTH     272      BUTH     H1       HDA3A    0.900000E-01   1.00800           0   0.00000       0.00000    
     20164 BUTH     272      BUTH     H2       HDA3A    0.900000E-01   1.00800           0   0.00000       0.00000    
     20165 BUTH     272      BUTH     H3       HDA3A    0.900000E-01   1.00800           0   0.00000       0.00000    
     20166 BUTH     272      BUTH     H4       HDA2A    0.900000E-01   1.00800           0   0.00000       0.00000    
     20167 BUTH     272      BUTH     H5       HDA2A    0.900000E-01   1.00800           0   0.00000       0.00000    
     20168 BUTH     272      BUTH     H6       HDA2A    0.900000E-01   1.00800           0   0.00000       0.00000    
     20169 BUTH     272      BUTH     H7       HDA2A    0.900000E-01   1.00800           0   0.00000       0.00000    
     20170 BUTH     272      BUTH     H8       HDP1A    0.430000       1.00800           0   0.00000       0.00000    
     20171 BUTH     272      BUTH     H9       DUMH      0.00000       1.00800           0   0.00000       0.00000    
     20172 BUTH     272      BUTH     LPO11    LPDO1   -0.287000       0.00000          -1   0.00000       0.00000    
     20173 BUTH     272      BUTH     LPO12    LPDO1   -0.288000       0.00000          -1   0.00000       0.00000    
     20174 BUTH     272      BUTH     LPO21    LPD     -0.302000       0.00000          -1   0.00000       0.00000    
     20175 BUTH     272      BUTH     LPO22    LPD     -0.303000       0.00000          -1   0.00000       0.00000    
     20176 BUTH     273      BUTH     C1       CD33A     2.05990       11.6110           0  -1.81190       1.18670    
     20177 BUTH     273      BUTH     DC1      DRUD     -2.33590      0.400000           0   0.00000       0.00000    
     20178 BUTH     273      BUTH     C2       CD32A     2.02070       11.6110           0  -1.59660       1.16930    
     20179 BUTH     273      BUTH     DC2      DRUD     -2.19270      0.400000           0   0.00000       0.00000    
     20180 BUTH     273      BUTH     C3       CD32A     1.98270       11.6110           0  -1.59660       1.16930    
     20181 BUTH     273      BUTH     DC3      DRUD     -2.19270      0.400000           0   0.00000       0.00000    
     20182 BUTH     273      BUTH     C4       CD2O3A    2.72690       11.6110           0  -1.26130       1.05430    
     20183 BUTH     273      BUTH     DC4      DRUD     -1.94890      0.400000           0   0.00000       0.00000    
     20184 BUTH     273      BUTH     O1       OD2C1A    1.46540       15.5994           0 -0.713100      0.569800    
     20185 BUTH     273      BUTH     DO1      DRUD     -1.46540      0.400000           0   0.00000       0.00000    
     20186 BUTH     273      BUTH     O2       OD31A     1.58240       15.5990           0 -0.831500      0.749400    
     20187 BUTH     273      BUTH     DO2      DRUD     -1.58240      0.400000           0   0.00000       0.00000    
     20188 BUTH     273      BUTH     H1       HDA3A    0.900000E-01   1.00800           0   0.00000       0.00000    
     20189 BUTH     273      BUTH     H2       HDA3A    0.900000E-01   1.00800           0   0.00000       0.00000    
     20190 BUTH     273      BUTH     H3       HDA3A    0.900000E-01   1.00800           0   0.00000       0.00000    
     20191 BUTH     273      BUTH     H4       HDA2A    0.900000E-01   1.00800           0   0.00000       0.00000    
     20192 BUTH     273      BUTH     H5       HDA2A    0.900000E-01   1.00800           0   0.00000       0.00000    
     20193 BUTH     273      BUTH     H6       HDA2A    0.900000E-01   1.00800           0   0.00000       0.00000    
     20194 BUTH     273      BUTH     H7       HDA2A    0.900000E-01   1.00800           0   0.00000       0.00000    
     20195 BUTH     273      BUTH     H8       HDP1A    0.430000       1.00800           0   0.00000       0.00000    
     20196 BUTH     273      BUTH     H9       DUMH      0.00000       1.00800           0   0.00000       0.00000    
     20197 BUTH     273      BUTH     LPO11    LPDO1   -0.287000       0.00000          -1   0.00000       0.00000    
     20198 BUTH     273      BUTH     LPO12    LPDO1   -0.288000       0.00000          -1   0.00000       0.00000    
     20199 BUTH     273      BUTH     LPO21    LPD     -0.302000       0.00000          -1   0.00000       0.00000    
     20200 BUTH     273      BUTH     LPO22    LPD     -0.303000       0.00000          -1   0.00000       0.00000    
     20201 BUTH     274      BUTH     C1       CD33A     2.05990       11.6110           0  -1.81190       1.18670    
     20202 BUTH     274      BUTH     DC1      DRUD     -2.33590      0.400000           0   0.00000       0.00000    
     20203 BUTH     274      BUTH     C2       CD32A     2.02070       11.6110           0  -1.59660       1.16930    
     20204 BUTH     274      BUTH     DC2      DRUD     -2.19270      0.400000           0   0.00000       0.00000    
     20205 BUTH     274      BUTH     C3       CD32A     1.98270       11.6110           0  -1.59660       1.16930    
     20206 BUTH     274      BUTH     DC3      DRUD     -2.19270      0.400000           0   0.00000       0.00000    
     20207 BUTH     274      BUTH     C4       CD2O3A    2.72690       11.6110           0  -1.26130       1.05430    
     20208 BUTH     274      BUTH     DC4      DRUD     -1.94890      0.400000           0   0.00000       0.00000    
     20209 BUTH     274      BUTH     O1       OD2C1A    1.46540       15.5994           0 -0.713100      0.569800    
     20210 BUTH     274      BUTH     DO1      DRUD     -1.46540      0.400000           0   0.00000       0.00000    
     20211 BUTH     274      BUTH     O2       OD31A     1.58240       15.5990           0 -0.831500      0.749400    
     20212 BUTH     274      BUTH     DO2      DRUD     -1.58240      0.400000           0   0.00000       0.00000    
     20213 BUTH     274      BUTH     H1       HDA3A    0.900000E-01   1.00800           0   0.00000       0.00000    
     20214 BUTH     274      BUTH     H2       HDA3A    0.900000E-01   1.00800           0   0.00000       0.00000    
     20215 BUTH     274      BUTH     H3       HDA3A    0.900000E-01   1.00800           0   0.00000       0.00000    
     20216 BUTH     274      BUTH     H4       HDA2A    0.900000E-01   1.00800           0   0.00000       0.00000    
     20217 BUTH     274      BUTH     H5       HDA2A    0.900000E-01   1.00800           0   0.00000       0.00000    
     20218 BUTH     274      BUTH     H6       HDA2A    0.900000E-01   1.00800           0   0.00000       0.00000    
     20219 BUTH     274      BUTH     H7       HDA2A    0.900000E-01   1.00800           0   0.00000       0.00000    
     20220 BUTH     274      BUTH     H8       HDP1A    0.430000       1.00800           0   0.00000       0.00000    
     20221 BUTH     274      BUTH     H9       DUMH      0.00000       1.00800           0   0.00000       0.00000    
     20222 BUTH     274      BUTH     LPO11    LPDO1   -0.287000       0.00000          -1   0.00000       0.00000    
     20223 BUTH     274      BUTH     LPO12    LPDO1   -0.288000       0.00000          -1   0.00000       0.00000    
     20224 BUTH     274      BUTH     LPO21    LPD     -0.302000       0.00000          -1   0.00000       0.00000    
     20225 BUTH     274      BUTH     LPO22    LPD     -0.303000       0.00000          -1   0.00000       0.00000    
     20226 BUTH     275      BUTH     C1       CD33A     2.05990       11.6110           0  -1.81190       1.18670    
     20227 BUTH     275      BUTH     DC1      DRUD     -2.33590      0.400000           0   0.00000       0.00000    
     20228 BUTH     275      BUTH     C2       CD32A     2.02070       11.6110           0  -1.59660       1.16930    
     20229 BUTH     275      BUTH     DC2      DRUD     -2.19270      0.400000           0   0.00000       0.00000    
     20230 BUTH     275      BUTH     C3       CD32A     1.98270       11.6110           0  -1.59660       1.16930    
     20231 BUTH     275      BUTH     DC3      DRUD     -2.19270      0.400000           0   0.00000       0.00000    
     20232 BUTH     275      BUTH     C4       CD2O3A    2.72690       11.6110           0  -1.26130       1.05430    
     20233 BUTH     275      BUTH     DC4      DRUD     -1.94890      0.400000           0   0.00000       0.00000    
     20234 BUTH     275      BUTH     O1       OD2C1A    1.46540       15.5994           0 -0.713100      0.569800    
     20235 BUTH     275      BUTH     DO1      DRUD     -1.46540      0.400000           0   0.00000       0.00000    
     20236 BUTH     275      BUTH     O2       OD31A     1.58240       15.5990           0 -0.831500      0.749400    
     20237 BUTH     275      BUTH     DO2      DRUD     -1.58240      0.400000           0   0.00000       0.00000    
     20238 BUTH     275      BUTH     H1       HDA3A    0.900000E-01   1.00800           0   0.00000       0.00000    
     20239 BUTH     275      BUTH     H2       HDA3A    0.900000E-01   1.00800           0   0.00000       0.00000    
     20240 BUTH     275      BUTH     H3       HDA3A    0.900000E-01   1.00800           0   0.00000       0.00000    
     20241 BUTH     275      BUTH     H4       HDA2A    0.900000E-01   1.00800           0   0.00000       0.00000    
     20242 BUTH     275      BUTH     H5       HDA2A    0.900000E-01   1.00800           0   0.00000       0.00000    
     20243 BUTH     275      BUTH     H6       HDA2A    0.900000E-01   1.00800           0   0.00000       0.00000    
     20244 BUTH     275      BUTH     H7       HDA2A    0.900000E-01   1.00800           0   0.00000       0.00000    
     20245 BUTH     275      BUTH     H8       HDP1A    0.430000       1.00800           0   0.00000       0.00000    
     20246 BUTH     275      BUTH     H9       DUMH      0.00000       1.00800           0   0.00000       0.00000    
     20247 BUTH     275      BUTH     LPO11    LPDO1   -0.287000       0.00000          -1   0.00000       0.00000    
     20248 BUTH     275      BUTH     LPO12    LPDO1   -0.288000       0.00000          -1   0.00000       0.00000    
     20249 BUTH     275      BUTH     LPO21    LPD     -0.302000       0.00000          -1   0.00000       0.00000    
     20250 BUTH     275      BUTH     LPO22    LPD     -0.303000       0.00000          -1   0.00000       0.00000    
     20251 BUTH     276      BUTH     C1       CD33A     2.05990       11.6110           0  -1.81190       1.18670    
     20252 BUTH     276      BUTH     DC1      DRUD     -2.33590      0.400000           0   0.00000       0.00000    
     20253 BUTH     276      BUTH     C2       CD32A     2.02070       11.6110           0  -1.59660       1.16930    
     20254 BUTH     276      BUTH     DC2      DRUD     -2.19270      0.400000           0   0.00000       0.00000    
     20255 BUTH     276      BUTH     C3       CD32A     1.98270       11.6110           0  -1.59660       1.16930    
     20256 BUTH     276      BUTH     DC3      DRUD     -2.19270      0.400000           0   0.00000       0.00000    
     20257 BUTH     276      BUTH     C4       CD2O3A    2.72690       11.6110           0  -1.26130       1.05430    
     20258 BUTH     276      BUTH     DC4      DRUD     -1.94890      0.400000           0   0.00000       0.00000    
     20259 BUTH     276      BUTH     O1       OD2C1A    1.46540       15.5994           0 -0.713100      0.569800    
     20260 BUTH     276      BUTH     DO1      DRUD     -1.46540      0.400000           0   0.00000       0.00000    
     20261 BUTH     276      BUTH     O2       OD31A     1.58240       15.5990           0 -0.831500      0.749400    
     20262 BUTH     276      BUTH     DO2      DRUD     -1.58240      0.400000           0   0.00000       0.00000    
     20263 BUTH     276      BUTH     H1       HDA3A    0.900000E-01   1.00800           0   0.00000       0.00000    
     20264 BUTH     276      BUTH     H2       HDA3A    0.900000E-01   1.00800           0   0.00000       0.00000    
     20265 BUTH     276      BUTH     H3       HDA3A    0.900000E-01   1.00800           0   0.00000       0.00000    
     20266 BUTH     276      BUTH     H4       HDA2A    0.900000E-01   1.00800           0   0.00000       0.00000    
     20267 BUTH     276      BUTH     H5       HDA2A    0.900000E-01   1.00800           0   0.00000       0.00000    
     20268 BUTH     276      BUTH     H6       HDA2A    0.900000E-01   1.00800           0   0.00000       0.00000    
     20269 BUTH     276      BUTH     H7       HDA2A    0.900000E-01   1.00800           0   0.00000       0.00000    
     20270 BUTH     276      BUTH     H8       HDP1A    0.430000       1.00800           0   0.00000       0.00000    
     20271 BUTH     276      BUTH     H9       DUMH      0.00000       1.00800           0   0.00000       0.00000    
     20272 BUTH     276      BUTH     LPO11    LPDO1   -0.287000       0.00000          -1   0.00000       0.00000    
     20273 BUTH     276      BUTH     LPO12    LPDO1   -0.288000       0.00000          -1   0.00000       0.00000    
     20274 BUTH     276      BUTH     LPO21    LPD     -0.302000       0.00000          -1   0.00000       0.00000    
     20275 BUTH     276      BUTH     LPO22    LPD     -0.303000       0.00000          -1   0.00000       0.00000    
     20276 BUTH     277      BUTH     C1       CD33A     2.05990       11.6110           0  -1.81190       1.18670    
     20277 BUTH     277      BUTH     DC1      DRUD     -2.33590      0.400000           0   0.00000       0.00000    
     20278 BUTH     277      BUTH     C2       CD32A     2.02070       11.6110           0  -1.59660       1.16930    
     20279 BUTH     277      BUTH     DC2      DRUD     -2.19270      0.400000           0   0.00000       0.00000    
     20280 BUTH     277      BUTH     C3       CD32A     1.98270       11.6110           0  -1.59660       1.16930    
     20281 BUTH     277      BUTH     DC3      DRUD     -2.19270      0.400000           0   0.00000       0.00000    
     20282 BUTH     277      BUTH     C4       CD2O3A    2.72690       11.6110           0  -1.26130       1.05430    
     20283 BUTH     277      BUTH     DC4      DRUD     -1.94890      0.400000           0   0.00000       0.00000    
     20284 BUTH     277      BUTH     O1       OD2C1A    1.46540       15.5994           0 -0.713100      0.569800    
     20285 BUTH     277      BUTH     DO1      DRUD     -1.46540      0.400000           0   0.00000       0.00000    
     20286 BUTH     277      BUTH     O2       OD31A     1.58240       15.5990           0 -0.831500      0.749400    
     20287 BUTH     277      BUTH     DO2      DRUD     -1.58240      0.400000           0   0.00000       0.00000    
     20288 BUTH     277      BUTH     H1       HDA3A    0.900000E-01   1.00800           0   0.00000       0.00000    
     20289 BUTH     277      BUTH     H2       HDA3A    0.900000E-01   1.00800           0   0.00000       0.00000    
     20290 BUTH     277      BUTH     H3       HDA3A    0.900000E-01   1.00800           0   0.00000       0.00000    
     20291 BUTH     277      BUTH     H4       HDA2A    0.900000E-01   1.00800           0   0.00000       0.00000    
     20292 BUTH     277      BUTH     H5       HDA2A    0.900000E-01   1.00800           0   0.00000       0.00000    
     20293 BUTH     277      BUTH     H6       HDA2A    0.900000E-01   1.00800           0   0.00000       0.00000    
     20294 BUTH     277      BUTH     H7       HDA2A    0.900000E-01   1.00800           0   0.00000       0.00000    
     20295 BUTH     277      BUTH     H8       HDP1A    0.430000       1.00800           0   0.00000       0.00000    
     20296 BUTH     277      BUTH     H9       DUMH      0.00000       1.00800           0   0.00000       0.00000    
     20297 BUTH     277      BUTH     LPO11    LPDO1   -0.287000       0.00000          -1   0.00000       0.00000    
     20298 BUTH     277      BUTH     LPO12    LPDO1   -0.288000       0.00000          -1   0.00000       0.00000    
     20299 BUTH     277      BUTH     LPO21    LPD     -0.302000       0.00000          -1   0.00000       0.00000    
     20300 BUTH     277      BUTH     LPO22    LPD     -0.303000       0.00000          -1   0.00000       0.00000    
     20301 BUTH     278      BUTH     C1       CD33A     2.05990       11.6110           0  -1.81190       1.18670    
     20302 BUTH     278      BUTH     DC1      DRUD     -2.33590      0.400000           0   0.00000       0.00000    
     20303 BUTH     278      BUTH     C2       CD32A     2.02070       11.6110           0  -1.59660       1.16930    
     20304 BUTH     278      BUTH     DC2      DRUD     -2.19270      0.400000           0   0.00000       0.00000    
     20305 BUTH     278      BUTH     C3       CD32A     1.98270       11.6110           0  -1.59660       1.16930    
     20306 BUTH     278      BUTH     DC3      DRUD     -2.19270      0.400000           0   0.00000       0.00000    
     20307 BUTH     278      BUTH     C4       CD2O3A    2.72690       11.6110           0  -1.26130       1.05430    
     20308 BUTH     278      BUTH     DC4      DRUD     -1.94890      0.400000           0   0.00000       0.00000    
     20309 BUTH     278      BUTH     O1       OD2C1A    1.46540       15.5994           0 -0.713100      0.569800    
     20310 BUTH     278      BUTH     DO1      DRUD     -1.46540      0.400000           0   0.00000       0.00000    
     20311 BUTH     278      BUTH     O2       OD31A     1.58240       15.5990           0 -0.831500      0.749400    
     20312 BUTH     278      BUTH     DO2      DRUD     -1.58240      0.400000           0   0.00000       0.00000    
     20313 BUTH     278      BUTH     H1       HDA3A    0.900000E-01   1.00800           0   0.00000       0.00000    
     20314 BUTH     278      BUTH     H2       HDA3A    0.900000E-01   1.00800           0   0.00000       0.00000    
     20315 BUTH     278      BUTH     H3       HDA3A    0.900000E-01   1.00800           0   0.00000       0.00000    
     20316 BUTH     278      BUTH     H4       HDA2A    0.900000E-01   1.00800           0   0.00000       0.00000    
     20317 BUTH     278      BUTH     H5       HDA2A    0.900000E-01   1.00800           0   0.00000       0.00000    
     20318 BUTH     278      BUTH     H6       HDA2A    0.900000E-01   1.00800           0   0.00000       0.00000    
     20319 BUTH     278      BUTH     H7       HDA2A    0.900000E-01   1.00800           0   0.00000       0.00000    
     20320 BUTH     278      BUTH     H8       HDP1A    0.430000       1.00800           0   0.00000       0.00000    
     20321 BUTH     278      BUTH     H9       DUMH      0.00000       1.00800           0   0.00000       0.00000    
     20322 BUTH     278      BUTH     LPO11    LPDO1   -0.287000       0.00000          -1   0.00000       0.00000    
     20323 BUTH     278      BUTH     LPO12    LPDO1   -0.288000       0.00000          -1   0.00000       0.00000    
     20324 BUTH     278      BUTH     LPO21    LPD     -0.302000       0.00000          -1   0.00000       0.00000    
     20325 BUTH     278      BUTH     LPO22    LPD     -0.303000       0.00000          -1   0.00000       0.00000    
     20326 BUTH     279      BUTH     C1       CD33A     2.05990       11.6110           0  -1.81190       1.18670    
     20327 BUTH     279      BUTH     DC1      DRUD     -2.33590      0.400000           0   0.00000       0.00000    
     20328 BUTH     279      BUTH     C2       CD32A     2.02070       11.6110           0  -1.59660       1.16930    
     20329 BUTH     279      BUTH     DC2      DRUD     -2.19270      0.400000           0   0.00000       0.00000    
     20330 BUTH     279      BUTH     C3       CD32A     1.98270       11.6110           0  -1.59660       1.16930    
     20331 BUTH     279      BUTH     DC3      DRUD     -2.19270      0.400000           0   0.00000       0.00000    
     20332 BUTH     279      BUTH     C4       CD2O3A    2.72690       11.6110           0  -1.26130       1.05430    
     20333 BUTH     279      BUTH     DC4      DRUD     -1.94890      0.400000           0   0.00000       0.00000    
     20334 BUTH     279      BUTH     O1       OD2C1A    1.46540       15.5994           0 -0.713100      0.569800    
     20335 BUTH     279      BUTH     DO1      DRUD     -1.46540      0.400000           0   0.00000       0.00000    
     20336 BUTH     279      BUTH     O2       OD31A     1.58240       15.5990           0 -0.831500      0.749400    
     20337 BUTH     279      BUTH     DO2      DRUD     -1.58240      0.400000           0   0.00000       0.00000    
     20338 BUTH     279      BUTH     H1       HDA3A    0.900000E-01   1.00800           0   0.00000       0.00000    
     20339 BUTH     279      BUTH     H2       HDA3A    0.900000E-01   1.00800           0   0.00000       0.00000    
     20340 BUTH     279      BUTH     H3       HDA3A    0.900000E-01   1.00800           0   0.00000       0.00000    
     20341 BUTH     279      BUTH     H4       HDA2A    0.900000E-01   1.00800           0   0.00000       0.00000    
     20342 BUTH     279      BUTH     H5       HDA2A    0.900000E-01   1.00800           0   0.00000       0.00000    
     20343 BUTH     279      BUTH     H6       HDA2A    0.900000E-01   1.00800           0   0.00000       0.00000    
     20344 BUTH     279      BUTH     H7       HDA2A    0.900000E-01   1.00800           0   0.00000       0.00000    
     20345 BUTH     279      BUTH     H8       HDP1A    0.430000       1.00800           0   0.00000       0.00000    
     20346 BUTH     279      BUTH     H9       DUMH      0.00000       1.00800           0   0.00000       0.00000    
     20347 BUTH     279      BUTH     LPO11    LPDO1   -0.287000       0.00000          -1   0.00000       0.00000    
     20348 BUTH     279      BUTH     LPO12    LPDO1   -0.288000       0.00000          -1   0.00000       0.00000    
     20349 BUTH     279      BUTH     LPO21    LPD     -0.302000       0.00000          -1   0.00000       0.00000    
     20350 BUTH     279      BUTH     LPO22    LPD     -0.303000       0.00000          -1   0.00000       0.00000    
     20351 BUTH     280      BUTH     C1       CD33A     2.05990       11.6110           0  -1.81190       1.18670    
     20352 BUTH     280      BUTH     DC1      DRUD     -2.33590      0.400000           0   0.00000       0.00000    
     20353 BUTH     280      BUTH     C2       CD32A     2.02070       11.6110           0  -1.59660       1.16930    
     20354 BUTH     280      BUTH     DC2      DRUD     -2.19270      0.400000           0   0.00000       0.00000    
     20355 BUTH     280      BUTH     C3       CD32A     1.98270       11.6110           0  -1.59660       1.16930    
     20356 BUTH     280      BUTH     DC3      DRUD     -2.19270      0.400000           0   0.00000       0.00000    
     20357 BUTH     280      BUTH     C4       CD2O3A    2.72690       11.6110           0  -1.26130       1.05430    
     20358 BUTH     280      BUTH     DC4      DRUD     -1.94890      0.400000           0   0.00000       0.00000    
     20359 BUTH     280      BUTH     O1       OD2C1A    1.46540       15.5994           0 -0.713100      0.569800    
     20360 BUTH     280      BUTH     DO1      DRUD     -1.46540      0.400000           0   0.00000       0.00000    
     20361 BUTH     280      BUTH     O2       OD31A     1.58240       15.5990           0 -0.831500      0.749400    
     20362 BUTH     280      BUTH     DO2      DRUD     -1.58240      0.400000           0   0.00000       0.00000    
     20363 BUTH     280      BUTH     H1       HDA3A    0.900000E-01   1.00800           0   0.00000       0.00000    
     20364 BUTH     280      BUTH     H2       HDA3A    0.900000E-01   1.00800           0   0.00000       0.00000    
     20365 BUTH     280      BUTH     H3       HDA3A    0.900000E-01   1.00800           0   0.00000       0.00000    
     20366 BUTH     280      BUTH     H4       HDA2A    0.900000E-01   1.00800           0   0.00000       0.00000    
     20367 BUTH     280      BUTH     H5       HDA2A    0.900000E-01   1.00800           0   0.00000       0.00000    
     20368 BUTH     280      BUTH     H6       HDA2A    0.900000E-01   1.00800           0   0.00000       0.00000    
     20369 BUTH     280      BUTH     H7       HDA2A    0.900000E-01   1.00800           0   0.00000       0.00000    
     20370 BUTH     280      BUTH     H8       HDP1A    0.430000       1.00800           0   0.00000       0.00000    
     20371 BUTH     280      BUTH     H9       DUMH      0.00000       1.00800           0   0.00000       0.00000    
     20372 BUTH     280      BUTH     LPO11    LPDO1   -0.287000       0.00000          -1   0.00000       0.00000    
     20373 BUTH     280      BUTH     LPO12    LPDO1   -0.288000       0.00000          -1   0.00000       0.00000    
     20374 BUTH     280      BUTH     LPO21    LPD     -0.302000       0.00000          -1   0.00000       0.00000    
     20375 BUTH     280      BUTH     LPO22    LPD     -0.303000       0.00000          -1   0.00000       0.00000    
     20376 BUTH     281      BUTH     C1       CD33A     2.05990       11.6110           0  -1.81190       1.18670    
     20377 BUTH     281      BUTH     DC1      DRUD     -2.33590      0.400000           0   0.00000       0.00000    
     20378 BUTH     281      BUTH     C2       CD32A     2.02070       11.6110           0  -1.59660       1.16930    
     20379 BUTH     281      BUTH     DC2      DRUD     -2.19270      0.400000           0   0.00000       0.00000    
     20380 BUTH     281      BUTH     C3       CD32A     1.98270       11.6110           0  -1.59660       1.16930    
     20381 BUTH     281      BUTH     DC3      DRUD     -2.19270      0.400000           0   0.00000       0.00000    
     20382 BUTH     281      BUTH     C4       CD2O3A    2.72690       11.6110           0  -1.26130       1.05430    
     20383 BUTH     281      BUTH     DC4      DRUD     -1.94890      0.400000           0   0.00000       0.00000    
     20384 BUTH     281      BUTH     O1       OD2C1A    1.46540       15.5994           0 -0.713100      0.569800    
     20385 BUTH     281      BUTH     DO1      DRUD     -1.46540      0.400000           0   0.00000       0.00000    
     20386 BUTH     281      BUTH     O2       OD31A     1.58240       15.5990           0 -0.831500      0.749400    
     20387 BUTH     281      BUTH     DO2      DRUD     -1.58240      0.400000           0   0.00000       0.00000    
     20388 BUTH     281      BUTH     H1       HDA3A    0.900000E-01   1.00800           0   0.00000       0.00000    
     20389 BUTH     281      BUTH     H2       HDA3A    0.900000E-01   1.00800           0   0.00000       0.00000    
     20390 BUTH     281      BUTH     H3       HDA3A    0.900000E-01   1.00800           0   0.00000       0.00000    
     20391 BUTH     281      BUTH     H4       HDA2A    0.900000E-01   1.00800           0   0.00000       0.00000    
     20392 BUTH     281      BUTH     H5       HDA2A    0.900000E-01   1.00800           0   0.00000       0.00000    
     20393 BUTH     281      BUTH     H6       HDA2A    0.900000E-01   1.00800           0   0.00000       0.00000    
     20394 BUTH     281      BUTH     H7       HDA2A    0.900000E-01   1.00800           0   0.00000       0.00000    
     20395 BUTH     281      BUTH     H8       HDP1A    0.430000       1.00800           0   0.00000       0.00000    
     20396 BUTH     281      BUTH     H9       DUMH      0.00000       1.00800           0   0.00000       0.00000    
     20397 BUTH     281      BUTH     LPO11    LPDO1   -0.287000       0.00000          -1   0.00000       0.00000    
     20398 BUTH     281      BUTH     LPO12    LPDO1   -0.288000       0.00000          -1   0.00000       0.00000    
     20399 BUTH     281      BUTH     LPO21    LPD     -0.302000       0.00000          -1   0.00000       0.00000    
     20400 BUTH     281      BUTH     LPO22    LPD     -0.303000       0.00000          -1   0.00000       0.00000    
     20401 BUTH     282      BUTH     C1       CD33A     2.05990       11.6110           0  -1.81190       1.18670    
     20402 BUTH     282      BUTH     DC1      DRUD     -2.33590      0.400000           0   0.00000       0.00000    
     20403 BUTH     282      BUTH     C2       CD32A     2.02070       11.6110           0  -1.59660       1.16930    
     20404 BUTH     282      BUTH     DC2      DRUD     -2.19270      0.400000           0   0.00000       0.00000    
     20405 BUTH     282      BUTH     C3       CD32A     1.98270       11.6110           0  -1.59660       1.16930    
     20406 BUTH     282      BUTH     DC3      DRUD     -2.19270      0.400000           0   0.00000       0.00000    
     20407 BUTH     282      BUTH     C4       CD2O3A    2.72690       11.6110           0  -1.26130       1.05430    
     20408 BUTH     282      BUTH     DC4      DRUD     -1.94890      0.400000           0   0.00000       0.00000    
     20409 BUTH     282      BUTH     O1       OD2C1A    1.46540       15.5994           0 -0.713100      0.569800    
     20410 BUTH     282      BUTH     DO1      DRUD     -1.46540      0.400000           0   0.00000       0.00000    
     20411 BUTH     282      BUTH     O2       OD31A     1.58240       15.5990           0 -0.831500      0.749400    
     20412 BUTH     282      BUTH     DO2      DRUD     -1.58240      0.400000           0   0.00000       0.00000    
     20413 BUTH     282      BUTH     H1       HDA3A    0.900000E-01   1.00800           0   0.00000       0.00000    
     20414 BUTH     282      BUTH     H2       HDA3A    0.900000E-01   1.00800           0   0.00000       0.00000    
     20415 BUTH     282      BUTH     H3       HDA3A    0.900000E-01   1.00800           0   0.00000       0.00000    
     20416 BUTH     282      BUTH     H4       HDA2A    0.900000E-01   1.00800           0   0.00000       0.00000    
     20417 BUTH     282      BUTH     H5       HDA2A    0.900000E-01   1.00800           0   0.00000       0.00000    
     20418 BUTH     282      BUTH     H6       HDA2A    0.900000E-01   1.00800           0   0.00000       0.00000    
     20419 BUTH     282      BUTH     H7       HDA2A    0.900000E-01   1.00800           0   0.00000       0.00000    
     20420 BUTH     282      BUTH     H8       HDP1A    0.430000       1.00800           0   0.00000       0.00000    
     20421 BUTH     282      BUTH     H9       DUMH      0.00000       1.00800           0   0.00000       0.00000    
     20422 BUTH     282      BUTH     LPO11    LPDO1   -0.287000       0.00000          -1   0.00000       0.00000    
     20423 BUTH     282      BUTH     LPO12    LPDO1   -0.288000       0.00000          -1   0.00000       0.00000    
     20424 BUTH     282      BUTH     LPO21    LPD     -0.302000       0.00000          -1   0.00000       0.00000    
     20425 BUTH     282      BUTH     LPO22    LPD     -0.303000       0.00000          -1   0.00000       0.00000    
     20426 BUTH     283      BUTH     C1       CD33A     2.05990       11.6110           0  -1.81190       1.18670    
     20427 BUTH     283      BUTH     DC1      DRUD     -2.33590      0.400000           0   0.00000       0.00000    
     20428 BUTH     283      BUTH     C2       CD32A     2.02070       11.6110           0  -1.59660       1.16930    
     20429 BUTH     283      BUTH     DC2      DRUD     -2.19270      0.400000           0   0.00000       0.00000    
     20430 BUTH     283      BUTH     C3       CD32A     1.98270       11.6110           0  -1.59660       1.16930    
     20431 BUTH     283      BUTH     DC3      DRUD     -2.19270      0.400000           0   0.00000       0.00000    
     20432 BUTH     283      BUTH     C4       CD2O3A    2.72690       11.6110           0  -1.26130       1.05430    
     20433 BUTH     283      BUTH     DC4      DRUD     -1.94890      0.400000           0   0.00000       0.00000    
     20434 BUTH     283      BUTH     O1       OD2C1A    1.46540       15.5994           0 -0.713100      0.569800    
     20435 BUTH     283      BUTH     DO1      DRUD     -1.46540      0.400000           0   0.00000       0.00000    
     20436 BUTH     283      BUTH     O2       OD31A     1.58240       15.5990           0 -0.831500      0.749400    
     20437 BUTH     283      BUTH     DO2      DRUD     -1.58240      0.400000           0   0.00000       0.00000    
     20438 BUTH     283      BUTH     H1       HDA3A    0.900000E-01   1.00800           0   0.00000       0.00000    
     20439 BUTH     283      BUTH     H2       HDA3A    0.900000E-01   1.00800           0   0.00000       0.00000    
     20440 BUTH     283      BUTH     H3       HDA3A    0.900000E-01   1.00800           0   0.00000       0.00000    
     20441 BUTH     283      BUTH     H4       HDA2A    0.900000E-01   1.00800           0   0.00000       0.00000    
     20442 BUTH     283      BUTH     H5       HDA2A    0.900000E-01   1.00800           0   0.00000       0.00000    
     20443 BUTH     283      BUTH     H6       HDA2A    0.900000E-01   1.00800           0   0.00000       0.00000    
     20444 BUTH     283      BUTH     H7       HDA2A    0.900000E-01   1.00800           0   0.00000       0.00000    
     20445 BUTH     283      BUTH     H8       HDP1A    0.430000       1.00800           0   0.00000       0.00000    
     20446 BUTH     283      BUTH     H9       DUMH      0.00000       1.00800           0   0.00000       0.00000    
     20447 BUTH     283      BUTH     LPO11    LPDO1   -0.287000       0.00000          -1   0.00000       0.00000    
     20448 BUTH     283      BUTH     LPO12    LPDO1   -0.288000       0.00000          -1   0.00000       0.00000    
     20449 BUTH     283      BUTH     LPO21    LPD     -0.302000       0.00000          -1   0.00000       0.00000    
     20450 BUTH     283      BUTH     LPO22    LPD     -0.303000       0.00000          -1   0.00000       0.00000    
     20451 BUTH     284      BUTH     C1       CD33A     2.05990       11.6110           0  -1.81190       1.18670    
     20452 BUTH     284      BUTH     DC1      DRUD     -2.33590      0.400000           0   0.00000       0.00000    
     20453 BUTH     284      BUTH     C2       CD32A     2.02070       11.6110           0  -1.59660       1.16930    
     20454 BUTH     284      BUTH     DC2      DRUD     -2.19270      0.400000           0   0.00000       0.00000    
     20455 BUTH     284      BUTH     C3       CD32A     1.98270       11.6110           0  -1.59660       1.16930    
     20456 BUTH     284      BUTH     DC3      DRUD     -2.19270      0.400000           0   0.00000       0.00000    
     20457 BUTH     284      BUTH     C4       CD2O3A    2.72690       11.6110           0  -1.26130       1.05430    
     20458 BUTH     284      BUTH     DC4      DRUD     -1.94890      0.400000           0   0.00000       0.00000    
     20459 BUTH     284      BUTH     O1       OD2C1A    1.46540       15.5994           0 -0.713100      0.569800    
     20460 BUTH     284      BUTH     DO1      DRUD     -1.46540      0.400000           0   0.00000       0.00000    
     20461 BUTH     284      BUTH     O2       OD31A     1.58240       15.5990           0 -0.831500      0.749400    
     20462 BUTH     284      BUTH     DO2      DRUD     -1.58240      0.400000           0   0.00000       0.00000    
     20463 BUTH     284      BUTH     H1       HDA3A    0.900000E-01   1.00800           0   0.00000       0.00000    
     20464 BUTH     284      BUTH     H2       HDA3A    0.900000E-01   1.00800           0   0.00000       0.00000    
     20465 BUTH     284      BUTH     H3       HDA3A    0.900000E-01   1.00800           0   0.00000       0.00000    
     20466 BUTH     284      BUTH     H4       HDA2A    0.900000E-01   1.00800           0   0.00000       0.00000    
     20467 BUTH     284      BUTH     H5       HDA2A    0.900000E-01   1.00800           0   0.00000       0.00000    
     20468 BUTH     284      BUTH     H6       HDA2A    0.900000E-01   1.00800           0   0.00000       0.00000    
     20469 BUTH     284      BUTH     H7       HDA2A    0.900000E-01   1.00800           0   0.00000       0.00000    
     20470 BUTH     284      BUTH     H8       HDP1A    0.430000       1.00800           0   0.00000       0.00000    
     20471 BUTH     284      BUTH     H9       DUMH      0.00000       1.00800           0   0.00000       0.00000    
     20472 BUTH     284      BUTH     LPO11    LPDO1   -0.287000       0.00000          -1   0.00000       0.00000    
     20473 BUTH     284      BUTH     LPO12    LPDO1   -0.288000       0.00000          -1   0.00000       0.00000    
     20474 BUTH     284      BUTH     LPO21    LPD     -0.302000       0.00000          -1   0.00000       0.00000    
     20475 BUTH     284      BUTH     LPO22    LPD     -0.303000       0.00000          -1   0.00000       0.00000    
     20476 BUTH     285      BUTH     C1       CD33A     2.05990       11.6110           0  -1.81190       1.18670    
     20477 BUTH     285      BUTH     DC1      DRUD     -2.33590      0.400000           0   0.00000       0.00000    
     20478 BUTH     285      BUTH     C2       CD32A     2.02070       11.6110           0  -1.59660       1.16930    
     20479 BUTH     285      BUTH     DC2      DRUD     -2.19270      0.400000           0   0.00000       0.00000    
     20480 BUTH     285      BUTH     C3       CD32A     1.98270       11.6110           0  -1.59660       1.16930    
     20481 BUTH     285      BUTH     DC3      DRUD     -2.19270      0.400000           0   0.00000       0.00000    
     20482 BUTH     285      BUTH     C4       CD2O3A    2.72690       11.6110           0  -1.26130       1.05430    
     20483 BUTH     285      BUTH     DC4      DRUD     -1.94890      0.400000           0   0.00000       0.00000    
     20484 BUTH     285      BUTH     O1       OD2C1A    1.46540       15.5994           0 -0.713100      0.569800    
     20485 BUTH     285      BUTH     DO1      DRUD     -1.46540      0.400000           0   0.00000       0.00000    
     20486 BUTH     285      BUTH     O2       OD31A     1.58240       15.5990           0 -0.831500      0.749400    
     20487 BUTH     285      BUTH     DO2      DRUD     -1.58240      0.400000           0   0.00000       0.00000    
     20488 BUTH     285      BUTH     H1       HDA3A    0.900000E-01   1.00800           0   0.00000       0.00000    
     20489 BUTH     285      BUTH     H2       HDA3A    0.900000E-01   1.00800           0   0.00000       0.00000    
     20490 BUTH     285      BUTH     H3       HDA3A    0.900000E-01   1.00800           0   0.00000       0.00000    
     20491 BUTH     285      BUTH     H4       HDA2A    0.900000E-01   1.00800           0   0.00000       0.00000    
     20492 BUTH     285      BUTH     H5       HDA2A    0.900000E-01   1.00800           0   0.00000       0.00000    
     20493 BUTH     285      BUTH     H6       HDA2A    0.900000E-01   1.00800           0   0.00000       0.00000    
     20494 BUTH     285      BUTH     H7       HDA2A    0.900000E-01   1.00800           0   0.00000       0.00000    
     20495 BUTH     285      BUTH     H8       HDP1A    0.430000       1.00800           0   0.00000       0.00000    
     20496 BUTH     285      BUTH     H9       DUMH      0.00000       1.00800           0   0.00000       0.00000    
     20497 BUTH     285      BUTH     LPO11    LPDO1   -0.287000       0.00000          -1   0.00000       0.00000    
     20498 BUTH     285      BUTH     LPO12    LPDO1   -0.288000       0.00000          -1   0.00000       0.00000    
     20499 BUTH     285      BUTH     LPO21    LPD     -0.302000       0.00000          -1   0.00000       0.00000    
     20500 BUTH     285      BUTH     LPO22    LPD     -0.303000       0.00000          -1   0.00000       0.00000    
     20501 BUTH     286      BUTH     C1       CD33A     2.05990       11.6110           0  -1.81190       1.18670    
     20502 BUTH     286      BUTH     DC1      DRUD     -2.33590      0.400000           0   0.00000       0.00000    
     20503 BUTH     286      BUTH     C2       CD32A     2.02070       11.6110           0  -1.59660       1.16930    
     20504 BUTH     286      BUTH     DC2      DRUD     -2.19270      0.400000           0   0.00000       0.00000    
     20505 BUTH     286      BUTH     C3       CD32A     1.98270       11.6110           0  -1.59660       1.16930    
     20506 BUTH     286      BUTH     DC3      DRUD     -2.19270      0.400000           0   0.00000       0.00000    
     20507 BUTH     286      BUTH     C4       CD2O3A    2.72690       11.6110           0  -1.26130       1.05430    
     20508 BUTH     286      BUTH     DC4      DRUD     -1.94890      0.400000           0   0.00000       0.00000    
     20509 BUTH     286      BUTH     O1       OD2C1A    1.46540       15.5994           0 -0.713100      0.569800    
     20510 BUTH     286      BUTH     DO1      DRUD     -1.46540      0.400000           0   0.00000       0.00000    
     20511 BUTH     286      BUTH     O2       OD31A     1.58240       15.5990           0 -0.831500      0.749400    
     20512 BUTH     286      BUTH     DO2      DRUD     -1.58240      0.400000           0   0.00000       0.00000    
     20513 BUTH     286      BUTH     H1       HDA3A    0.900000E-01   1.00800           0   0.00000       0.00000    
     20514 BUTH     286      BUTH     H2       HDA3A    0.900000E-01   1.00800           0   0.00000       0.00000    
     20515 BUTH     286      BUTH     H3       HDA3A    0.900000E-01   1.00800           0   0.00000       0.00000    
     20516 BUTH     286      BUTH     H4       HDA2A    0.900000E-01   1.00800           0   0.00000       0.00000    
     20517 BUTH     286      BUTH     H5       HDA2A    0.900000E-01   1.00800           0   0.00000       0.00000    
     20518 BUTH     286      BUTH     H6       HDA2A    0.900000E-01   1.00800           0   0.00000       0.00000    
     20519 BUTH     286      BUTH     H7       HDA2A    0.900000E-01   1.00800           0   0.00000       0.00000    
     20520 BUTH     286      BUTH     H8       HDP1A    0.430000       1.00800           0   0.00000       0.00000    
     20521 BUTH     286      BUTH     H9       DUMH      0.00000       1.00800           0   0.00000       0.00000    
     20522 BUTH     286      BUTH     LPO11    LPDO1   -0.287000       0.00000          -1   0.00000       0.00000    
     20523 BUTH     286      BUTH     LPO12    LPDO1   -0.288000       0.00000          -1   0.00000       0.00000    
     20524 BUTH     286      BUTH     LPO21    LPD     -0.302000       0.00000          -1   0.00000       0.00000    
     20525 BUTH     286      BUTH     LPO22    LPD     -0.303000       0.00000          -1   0.00000       0.00000    
     20526 BUTH     287      BUTH     C1       CD33A     2.05990       11.6110           0  -1.81190       1.18670    
     20527 BUTH     287      BUTH     DC1      DRUD     -2.33590      0.400000           0   0.00000       0.00000    
     20528 BUTH     287      BUTH     C2       CD32A     2.02070       11.6110           0  -1.59660       1.16930    
     20529 BUTH     287      BUTH     DC2      DRUD     -2.19270      0.400000           0   0.00000       0.00000    
     20530 BUTH     287      BUTH     C3       CD32A     1.98270       11.6110           0  -1.59660       1.16930    
     20531 BUTH     287      BUTH     DC3      DRUD     -2.19270      0.400000           0   0.00000       0.00000    
     20532 BUTH     287      BUTH     C4       CD2O3A    2.72690       11.6110           0  -1.26130       1.05430    
     20533 BUTH     287      BUTH     DC4      DRUD     -1.94890      0.400000           0   0.00000       0.00000    
     20534 BUTH     287      BUTH     O1       OD2C1A    1.46540       15.5994           0 -0.713100      0.569800    
     20535 BUTH     287      BUTH     DO1      DRUD     -1.46540      0.400000           0   0.00000       0.00000    
     20536 BUTH     287      BUTH     O2       OD31A     1.58240       15.5990           0 -0.831500      0.749400    
     20537 BUTH     287      BUTH     DO2      DRUD     -1.58240      0.400000           0   0.00000       0.00000    
     20538 BUTH     287      BUTH     H1       HDA3A    0.900000E-01   1.00800           0   0.00000       0.00000    
     20539 BUTH     287      BUTH     H2       HDA3A    0.900000E-01   1.00800           0   0.00000       0.00000    
     20540 BUTH     287      BUTH     H3       HDA3A    0.900000E-01   1.00800           0   0.00000       0.00000    
     20541 BUTH     287      BUTH     H4       HDA2A    0.900000E-01   1.00800           0   0.00000       0.00000    
     20542 BUTH     287      BUTH     H5       HDA2A    0.900000E-01   1.00800           0   0.00000       0.00000    
     20543 BUTH     287      BUTH     H6       HDA2A    0.900000E-01   1.00800           0   0.00000       0.00000    
     20544 BUTH     287      BUTH     H7       HDA2A    0.900000E-01   1.00800           0   0.00000       0.00000    
     20545 BUTH     287      BUTH     H8       HDP1A    0.430000       1.00800           0   0.00000       0.00000    
     20546 BUTH     287      BUTH     H9       DUMH      0.00000       1.00800           0   0.00000       0.00000    
     20547 BUTH     287      BUTH     LPO11    LPDO1   -0.287000       0.00000          -1   0.00000       0.00000    
     20548 BUTH     287      BUTH     LPO12    LPDO1   -0.288000       0.00000          -1   0.00000       0.00000    
     20549 BUTH     287      BUTH     LPO21    LPD     -0.302000       0.00000          -1   0.00000       0.00000    
     20550 BUTH     287      BUTH     LPO22    LPD     -0.303000       0.00000          -1   0.00000       0.00000    
     20551 BUTH     288      BUTH     C1       CD33A     2.05990       11.6110           0  -1.81190       1.18670    
     20552 BUTH     288      BUTH     DC1      DRUD     -2.33590      0.400000           0   0.00000       0.00000    
     20553 BUTH     288      BUTH     C2       CD32A     2.02070       11.6110           0  -1.59660       1.16930    
     20554 BUTH     288      BUTH     DC2      DRUD     -2.19270      0.400000           0   0.00000       0.00000    
     20555 BUTH     288      BUTH     C3       CD32A     1.98270       11.6110           0  -1.59660       1.16930    
     20556 BUTH     288      BUTH     DC3      DRUD     -2.19270      0.400000           0   0.00000       0.00000    
     20557 BUTH     288      BUTH     C4       CD2O3A    2.72690       11.6110           0  -1.26130       1.05430    
     20558 BUTH     288      BUTH     DC4      DRUD     -1.94890      0.400000           0   0.00000       0.00000    
     20559 BUTH     288      BUTH     O1       OD2C1A    1.46540       15.5994           0 -0.713100      0.569800    
     20560 BUTH     288      BUTH     DO1      DRUD     -1.46540      0.400000           0   0.00000       0.00000    
     20561 BUTH     288      BUTH     O2       OD31A     1.58240       15.5990           0 -0.831500      0.749400    
     20562 BUTH     288      BUTH     DO2      DRUD     -1.58240      0.400000           0   0.00000       0.00000    
     20563 BUTH     288      BUTH     H1       HDA3A    0.900000E-01   1.00800           0   0.00000       0.00000    
     20564 BUTH     288      BUTH     H2       HDA3A    0.900000E-01   1.00800           0   0.00000       0.00000    
     20565 BUTH     288      BUTH     H3       HDA3A    0.900000E-01   1.00800           0   0.00000       0.00000    
     20566 BUTH     288      BUTH     H4       HDA2A    0.900000E-01   1.00800           0   0.00000       0.00000    
     20567 BUTH     288      BUTH     H5       HDA2A    0.900000E-01   1.00800           0   0.00000       0.00000    
     20568 BUTH     288      BUTH     H6       HDA2A    0.900000E-01   1.00800           0   0.00000       0.00000    
     20569 BUTH     288      BUTH     H7       HDA2A    0.900000E-01   1.00800           0   0.00000       0.00000    
     20570 BUTH     288      BUTH     H8       HDP1A    0.430000       1.00800           0   0.00000       0.00000    
     20571 BUTH     288      BUTH     H9       DUMH      0.00000       1.00800           0   0.00000       0.00000    
     20572 BUTH     288      BUTH     LPO11    LPDO1   -0.287000       0.00000          -1   0.00000       0.00000    
     20573 BUTH     288      BUTH     LPO12    LPDO1   -0.288000       0.00000          -1   0.00000       0.00000    
     20574 BUTH     288      BUTH     LPO21    LPD     -0.302000       0.00000          -1   0.00000       0.00000    
     20575 BUTH     288      BUTH     LPO22    LPD     -0.303000       0.00000          -1   0.00000       0.00000    
     20576 BUTH     289      BUTH     C1       CD33A     2.05990       11.6110           0  -1.81190       1.18670    
     20577 BUTH     289      BUTH     DC1      DRUD     -2.33590      0.400000           0   0.00000       0.00000    
     20578 BUTH     289      BUTH     C2       CD32A     2.02070       11.6110           0  -1.59660       1.16930    
     20579 BUTH     289      BUTH     DC2      DRUD     -2.19270      0.400000           0   0.00000       0.00000    
     20580 BUTH     289      BUTH     C3       CD32A     1.98270       11.6110           0  -1.59660       1.16930    
     20581 BUTH     289      BUTH     DC3      DRUD     -2.19270      0.400000           0   0.00000       0.00000    
     20582 BUTH     289      BUTH     C4       CD2O3A    2.72690       11.6110           0  -1.26130       1.05430    
     20583 BUTH     289      BUTH     DC4      DRUD     -1.94890      0.400000           0   0.00000       0.00000    
     20584 BUTH     289      BUTH     O1       OD2C1A    1.46540       15.5994           0 -0.713100      0.569800    
     20585 BUTH     289      BUTH     DO1      DRUD     -1.46540      0.400000           0   0.00000       0.00000    
     20586 BUTH     289      BUTH     O2       OD31A     1.58240       15.5990           0 -0.831500      0.749400    
     20587 BUTH     289      BUTH     DO2      DRUD     -1.58240      0.400000           0   0.00000       0.00000    
     20588 BUTH     289      BUTH     H1       HDA3A    0.900000E-01   1.00800           0   0.00000       0.00000    
     20589 BUTH     289      BUTH     H2       HDA3A    0.900000E-01   1.00800           0   0.00000       0.00000    
     20590 BUTH     289      BUTH     H3       HDA3A    0.900000E-01   1.00800           0   0.00000       0.00000    
     20591 BUTH     289      BUTH     H4       HDA2A    0.900000E-01   1.00800           0   0.00000       0.00000    
     20592 BUTH     289      BUTH     H5       HDA2A    0.900000E-01   1.00800           0   0.00000       0.00000    
     20593 BUTH     289      BUTH     H6       HDA2A    0.900000E-01   1.00800           0   0.00000       0.00000    
     20594 BUTH     289      BUTH     H7       HDA2A    0.900000E-01   1.00800           0   0.00000       0.00000    
     20595 BUTH     289      BUTH     H8       HDP1A    0.430000       1.00800           0   0.00000       0.00000    
     20596 BUTH     289      BUTH     H9       DUMH      0.00000       1.00800           0   0.00000       0.00000    
     20597 BUTH     289      BUTH     LPO11    LPDO1   -0.287000       0.00000          -1   0.00000       0.00000    
     20598 BUTH     289      BUTH     LPO12    LPDO1   -0.288000       0.00000          -1   0.00000       0.00000    
     20599 BUTH     289      BUTH     LPO21    LPD     -0.302000       0.00000          -1   0.00000       0.00000    
     20600 BUTH     289      BUTH     LPO22    LPD     -0.303000       0.00000          -1   0.00000       0.00000    
     20601 BUTH     290      BUTH     C1       CD33A     2.05990       11.6110           0  -1.81190       1.18670    
     20602 BUTH     290      BUTH     DC1      DRUD     -2.33590      0.400000           0   0.00000       0.00000    
     20603 BUTH     290      BUTH     C2       CD32A     2.02070       11.6110           0  -1.59660       1.16930    
     20604 BUTH     290      BUTH     DC2      DRUD     -2.19270      0.400000           0   0.00000       0.00000    
     20605 BUTH     290      BUTH     C3       CD32A     1.98270       11.6110           0  -1.59660       1.16930    
     20606 BUTH     290      BUTH     DC3      DRUD     -2.19270      0.400000           0   0.00000       0.00000    
     20607 BUTH     290      BUTH     C4       CD2O3A    2.72690       11.6110           0  -1.26130       1.05430    
     20608 BUTH     290      BUTH     DC4      DRUD     -1.94890      0.400000           0   0.00000       0.00000    
     20609 BUTH     290      BUTH     O1       OD2C1A    1.46540       15.5994           0 -0.713100      0.569800    
     20610 BUTH     290      BUTH     DO1      DRUD     -1.46540      0.400000           0   0.00000       0.00000    
     20611 BUTH     290      BUTH     O2       OD31A     1.58240       15.5990           0 -0.831500      0.749400    
     20612 BUTH     290      BUTH     DO2      DRUD     -1.58240      0.400000           0   0.00000       0.00000    
     20613 BUTH     290      BUTH     H1       HDA3A    0.900000E-01   1.00800           0   0.00000       0.00000    
     20614 BUTH     290      BUTH     H2       HDA3A    0.900000E-01   1.00800           0   0.00000       0.00000    
     20615 BUTH     290      BUTH     H3       HDA3A    0.900000E-01   1.00800           0   0.00000       0.00000    
     20616 BUTH     290      BUTH     H4       HDA2A    0.900000E-01   1.00800           0   0.00000       0.00000    
     20617 BUTH     290      BUTH     H5       HDA2A    0.900000E-01   1.00800           0   0.00000       0.00000    
     20618 BUTH     290      BUTH     H6       HDA2A    0.900000E-01   1.00800           0   0.00000       0.00000    
     20619 BUTH     290      BUTH     H7       HDA2A    0.900000E-01   1.00800           0   0.00000       0.00000    
     20620 BUTH     290      BUTH     H8       HDP1A    0.430000       1.00800           0   0.00000       0.00000    
     20621 BUTH     290      BUTH     H9       DUMH      0.00000       1.00800           0   0.00000       0.00000    
     20622 BUTH     290      BUTH     LPO11    LPDO1   -0.287000       0.00000          -1   0.00000       0.00000    
     20623 BUTH     290      BUTH     LPO12    LPDO1   -0.288000       0.00000          -1   0.00000       0.00000    
     20624 BUTH     290      BUTH     LPO21    LPD     -0.302000       0.00000          -1   0.00000       0.00000    
     20625 BUTH     290      BUTH     LPO22    LPD     -0.303000       0.00000          -1   0.00000       0.00000    
     20626 BUTH     291      BUTH     C1       CD33A     2.05990       11.6110           0  -1.81190       1.18670    
     20627 BUTH     291      BUTH     DC1      DRUD     -2.33590      0.400000           0   0.00000       0.00000    
     20628 BUTH     291      BUTH     C2       CD32A     2.02070       11.6110           0  -1.59660       1.16930    
     20629 BUTH     291      BUTH     DC2      DRUD     -2.19270      0.400000           0   0.00000       0.00000    
     20630 BUTH     291      BUTH     C3       CD32A     1.98270       11.6110           0  -1.59660       1.16930    
     20631 BUTH     291      BUTH     DC3      DRUD     -2.19270      0.400000           0   0.00000       0.00000    
     20632 BUTH     291      BUTH     C4       CD2O3A    2.72690       11.6110           0  -1.26130       1.05430    
     20633 BUTH     291      BUTH     DC4      DRUD     -1.94890      0.400000           0   0.00000       0.00000    
     20634 BUTH     291      BUTH     O1       OD2C1A    1.46540       15.5994           0 -0.713100      0.569800    
     20635 BUTH     291      BUTH     DO1      DRUD     -1.46540      0.400000           0   0.00000       0.00000    
     20636 BUTH     291      BUTH     O2       OD31A     1.58240       15.5990           0 -0.831500      0.749400    
     20637 BUTH     291      BUTH     DO2      DRUD     -1.58240      0.400000           0   0.00000       0.00000    
     20638 BUTH     291      BUTH     H1       HDA3A    0.900000E-01   1.00800           0   0.00000       0.00000    
     20639 BUTH     291      BUTH     H2       HDA3A    0.900000E-01   1.00800           0   0.00000       0.00000    
     20640 BUTH     291      BUTH     H3       HDA3A    0.900000E-01   1.00800           0   0.00000       0.00000    
     20641 BUTH     291      BUTH     H4       HDA2A    0.900000E-01   1.00800           0   0.00000       0.00000    
     20642 BUTH     291      BUTH     H5       HDA2A    0.900000E-01   1.00800           0   0.00000       0.00000    
     20643 BUTH     291      BUTH     H6       HDA2A    0.900000E-01   1.00800           0   0.00000       0.00000    
     20644 BUTH     291      BUTH     H7       HDA2A    0.900000E-01   1.00800           0   0.00000       0.00000    
     20645 BUTH     291      BUTH     H8       HDP1A    0.430000       1.00800           0   0.00000       0.00000    
     20646 BUTH     291      BUTH     H9       DUMH      0.00000       1.00800           0   0.00000       0.00000    
     20647 BUTH     291      BUTH     LPO11    LPDO1   -0.287000       0.00000          -1   0.00000       0.00000    
     20648 BUTH     291      BUTH     LPO12    LPDO1   -0.288000       0.00000          -1   0.00000       0.00000    
     20649 BUTH     291      BUTH     LPO21    LPD     -0.302000       0.00000          -1   0.00000       0.00000    
     20650 BUTH     291      BUTH     LPO22    LPD     -0.303000       0.00000          -1   0.00000       0.00000    
     20651 BUTH     292      BUTH     C1       CD33A     2.05990       11.6110           0  -1.81190       1.18670    
     20652 BUTH     292      BUTH     DC1      DRUD     -2.33590      0.400000           0   0.00000       0.00000    
     20653 BUTH     292      BUTH     C2       CD32A     2.02070       11.6110           0  -1.59660       1.16930    
     20654 BUTH     292      BUTH     DC2      DRUD     -2.19270      0.400000           0   0.00000       0.00000    
     20655 BUTH     292      BUTH     C3       CD32A     1.98270       11.6110           0  -1.59660       1.16930    
     20656 BUTH     292      BUTH     DC3      DRUD     -2.19270      0.400000           0   0.00000       0.00000    
     20657 BUTH     292      BUTH     C4       CD2O3A    2.72690       11.6110           0  -1.26130       1.05430    
     20658 BUTH     292      BUTH     DC4      DRUD     -1.94890      0.400000           0   0.00000       0.00000    
     20659 BUTH     292      BUTH     O1       OD2C1A    1.46540       15.5994           0 -0.713100      0.569800    
     20660 BUTH     292      BUTH     DO1      DRUD     -1.46540      0.400000           0   0.00000       0.00000    
     20661 BUTH     292      BUTH     O2       OD31A     1.58240       15.5990           0 -0.831500      0.749400    
     20662 BUTH     292      BUTH     DO2      DRUD     -1.58240      0.400000           0   0.00000       0.00000    
     20663 BUTH     292      BUTH     H1       HDA3A    0.900000E-01   1.00800           0   0.00000       0.00000    
     20664 BUTH     292      BUTH     H2       HDA3A    0.900000E-01   1.00800           0   0.00000       0.00000    
     20665 BUTH     292      BUTH     H3       HDA3A    0.900000E-01   1.00800           0   0.00000       0.00000    
     20666 BUTH     292      BUTH     H4       HDA2A    0.900000E-01   1.00800           0   0.00000       0.00000    
     20667 BUTH     292      BUTH     H5       HDA2A    0.900000E-01   1.00800           0   0.00000       0.00000    
     20668 BUTH     292      BUTH     H6       HDA2A    0.900000E-01   1.00800           0   0.00000       0.00000    
     20669 BUTH     292      BUTH     H7       HDA2A    0.900000E-01   1.00800           0   0.00000       0.00000    
     20670 BUTH     292      BUTH     H8       HDP1A    0.430000       1.00800           0   0.00000       0.00000    
     20671 BUTH     292      BUTH     H9       DUMH      0.00000       1.00800           0   0.00000       0.00000    
     20672 BUTH     292      BUTH     LPO11    LPDO1   -0.287000       0.00000          -1   0.00000       0.00000    
     20673 BUTH     292      BUTH     LPO12    LPDO1   -0.288000       0.00000          -1   0.00000       0.00000    
     20674 BUTH     292      BUTH     LPO21    LPD     -0.302000       0.00000          -1   0.00000       0.00000    
     20675 BUTH     292      BUTH     LPO22    LPD     -0.303000       0.00000          -1   0.00000       0.00000    
     20676 BUTH     293      BUTH     C1       CD33A     2.05990       11.6110           0  -1.81190       1.18670    
     20677 BUTH     293      BUTH     DC1      DRUD     -2.33590      0.400000           0   0.00000       0.00000    
     20678 BUTH     293      BUTH     C2       CD32A     2.02070       11.6110           0  -1.59660       1.16930    
     20679 BUTH     293      BUTH     DC2      DRUD     -2.19270      0.400000           0   0.00000       0.00000    
     20680 BUTH     293      BUTH     C3       CD32A     1.98270       11.6110           0  -1.59660       1.16930    
     20681 BUTH     293      BUTH     DC3      DRUD     -2.19270      0.400000           0   0.00000       0.00000    
     20682 BUTH     293      BUTH     C4       CD2O3A    2.72690       11.6110           0  -1.26130       1.05430    
     20683 BUTH     293      BUTH     DC4      DRUD     -1.94890      0.400000           0   0.00000       0.00000    
     20684 BUTH     293      BUTH     O1       OD2C1A    1.46540       15.5994           0 -0.713100      0.569800    
     20685 BUTH     293      BUTH     DO1      DRUD     -1.46540      0.400000           0   0.00000       0.00000    
     20686 BUTH     293      BUTH     O2       OD31A     1.58240       15.5990           0 -0.831500      0.749400    
     20687 BUTH     293      BUTH     DO2      DRUD     -1.58240      0.400000           0   0.00000       0.00000    
     20688 BUTH     293      BUTH     H1       HDA3A    0.900000E-01   1.00800           0   0.00000       0.00000    
     20689 BUTH     293      BUTH     H2       HDA3A    0.900000E-01   1.00800           0   0.00000       0.00000    
     20690 BUTH     293      BUTH     H3       HDA3A    0.900000E-01   1.00800           0   0.00000       0.00000    
     20691 BUTH     293      BUTH     H4       HDA2A    0.900000E-01   1.00800           0   0.00000       0.00000    
     20692 BUTH     293      BUTH     H5       HDA2A    0.900000E-01   1.00800           0   0.00000       0.00000    
     20693 BUTH     293      BUTH     H6       HDA2A    0.900000E-01   1.00800           0   0.00000       0.00000    
     20694 BUTH     293      BUTH     H7       HDA2A    0.900000E-01   1.00800           0   0.00000       0.00000    
     20695 BUTH     293      BUTH     H8       HDP1A    0.430000       1.00800           0   0.00000       0.00000    
     20696 BUTH     293      BUTH     H9       DUMH      0.00000       1.00800           0   0.00000       0.00000    
     20697 BUTH     293      BUTH     LPO11    LPDO1   -0.287000       0.00000          -1   0.00000       0.00000    
     20698 BUTH     293      BUTH     LPO12    LPDO1   -0.288000       0.00000          -1   0.00000       0.00000    
     20699 BUTH     293      BUTH     LPO21    LPD     -0.302000       0.00000          -1   0.00000       0.00000    
     20700 BUTH     293      BUTH     LPO22    LPD     -0.303000       0.00000          -1   0.00000       0.00000    
     20701 BUTH     294      BUTH     C1       CD33A     2.05990       11.6110           0  -1.81190       1.18670    
     20702 BUTH     294      BUTH     DC1      DRUD     -2.33590      0.400000           0   0.00000       0.00000    
     20703 BUTH     294      BUTH     C2       CD32A     2.02070       11.6110           0  -1.59660       1.16930    
     20704 BUTH     294      BUTH     DC2      DRUD     -2.19270      0.400000           0   0.00000       0.00000    
     20705 BUTH     294      BUTH     C3       CD32A     1.98270       11.6110           0  -1.59660       1.16930    
     20706 BUTH     294      BUTH     DC3      DRUD     -2.19270      0.400000           0   0.00000       0.00000    
     20707 BUTH     294      BUTH     C4       CD2O3A    2.72690       11.6110           0  -1.26130       1.05430    
     20708 BUTH     294      BUTH     DC4      DRUD     -1.94890      0.400000           0   0.00000       0.00000    
     20709 BUTH     294      BUTH     O1       OD2C1A    1.46540       15.5994           0 -0.713100      0.569800    
     20710 BUTH     294      BUTH     DO1      DRUD     -1.46540      0.400000           0   0.00000       0.00000    
     20711 BUTH     294      BUTH     O2       OD31A     1.58240       15.5990           0 -0.831500      0.749400    
     20712 BUTH     294      BUTH     DO2      DRUD     -1.58240      0.400000           0   0.00000       0.00000    
     20713 BUTH     294      BUTH     H1       HDA3A    0.900000E-01   1.00800           0   0.00000       0.00000    
     20714 BUTH     294      BUTH     H2       HDA3A    0.900000E-01   1.00800           0   0.00000       0.00000    
     20715 BUTH     294      BUTH     H3       HDA3A    0.900000E-01   1.00800           0   0.00000       0.00000    
     20716 BUTH     294      BUTH     H4       HDA2A    0.900000E-01   1.00800           0   0.00000       0.00000    
     20717 BUTH     294      BUTH     H5       HDA2A    0.900000E-01   1.00800           0   0.00000       0.00000    
     20718 BUTH     294      BUTH     H6       HDA2A    0.900000E-01   1.00800           0   0.00000       0.00000    
     20719 BUTH     294      BUTH     H7       HDA2A    0.900000E-01   1.00800           0   0.00000       0.00000    
     20720 BUTH     294      BUTH     H8       HDP1A    0.430000       1.00800           0   0.00000       0.00000    
     20721 BUTH     294      BUTH     H9       DUMH      0.00000       1.00800           0   0.00000       0.00000    
     20722 BUTH     294      BUTH     LPO11    LPDO1   -0.287000       0.00000          -1   0.00000       0.00000    
     20723 BUTH     294      BUTH     LPO12    LPDO1   -0.288000       0.00000          -1   0.00000       0.00000    
     20724 BUTH     294      BUTH     LPO21    LPD     -0.302000       0.00000          -1   0.00000       0.00000    
     20725 BUTH     294      BUTH     LPO22    LPD     -0.303000       0.00000          -1   0.00000       0.00000    
     20726 BUTH     295      BUTH     C1       CD33A     2.05990       11.6110           0  -1.81190       1.18670    
     20727 BUTH     295      BUTH     DC1      DRUD     -2.33590      0.400000           0   0.00000       0.00000    
     20728 BUTH     295      BUTH     C2       CD32A     2.02070       11.6110           0  -1.59660       1.16930    
     20729 BUTH     295      BUTH     DC2      DRUD     -2.19270      0.400000           0   0.00000       0.00000    
     20730 BUTH     295      BUTH     C3       CD32A     1.98270       11.6110           0  -1.59660       1.16930    
     20731 BUTH     295      BUTH     DC3      DRUD     -2.19270      0.400000           0   0.00000       0.00000    
     20732 BUTH     295      BUTH     C4       CD2O3A    2.72690       11.6110           0  -1.26130       1.05430    
     20733 BUTH     295      BUTH     DC4      DRUD     -1.94890      0.400000           0   0.00000       0.00000    
     20734 BUTH     295      BUTH     O1       OD2C1A    1.46540       15.5994           0 -0.713100      0.569800    
     20735 BUTH     295      BUTH     DO1      DRUD     -1.46540      0.400000           0   0.00000       0.00000    
     20736 BUTH     295      BUTH     O2       OD31A     1.58240       15.5990           0 -0.831500      0.749400    
     20737 BUTH     295      BUTH     DO2      DRUD     -1.58240      0.400000           0   0.00000       0.00000    
     20738 BUTH     295      BUTH     H1       HDA3A    0.900000E-01   1.00800           0   0.00000       0.00000    
     20739 BUTH     295      BUTH     H2       HDA3A    0.900000E-01   1.00800           0   0.00000       0.00000    
     20740 BUTH     295      BUTH     H3       HDA3A    0.900000E-01   1.00800           0   0.00000       0.00000    
     20741 BUTH     295      BUTH     H4       HDA2A    0.900000E-01   1.00800           0   0.00000       0.00000    
     20742 BUTH     295      BUTH     H5       HDA2A    0.900000E-01   1.00800           0   0.00000       0.00000    
     20743 BUTH     295      BUTH     H6       HDA2A    0.900000E-01   1.00800           0   0.00000       0.00000    
     20744 BUTH     295      BUTH     H7       HDA2A    0.900000E-01   1.00800           0   0.00000       0.00000    
     20745 BUTH     295      BUTH     H8       HDP1A    0.430000       1.00800           0   0.00000       0.00000    
     20746 BUTH     295      BUTH     H9       DUMH      0.00000       1.00800           0   0.00000       0.00000    
     20747 BUTH     295      BUTH     LPO11    LPDO1   -0.287000       0.00000          -1   0.00000       0.00000    
     20748 BUTH     295      BUTH     LPO12    LPDO1   -0.288000       0.00000          -1   0.00000       0.00000    
     20749 BUTH     295      BUTH     LPO21    LPD     -0.302000       0.00000          -1   0.00000       0.00000    
     20750 BUTH     295      BUTH     LPO22    LPD     -0.303000       0.00000          -1   0.00000       0.00000    
     20751 BUTH     296      BUTH     C1       CD33A     2.05990       11.6110           0  -1.81190       1.18670    
     20752 BUTH     296      BUTH     DC1      DRUD     -2.33590      0.400000           0   0.00000       0.00000    
     20753 BUTH     296      BUTH     C2       CD32A     2.02070       11.6110           0  -1.59660       1.16930    
     20754 BUTH     296      BUTH     DC2      DRUD     -2.19270      0.400000           0   0.00000       0.00000    
     20755 BUTH     296      BUTH     C3       CD32A     1.98270       11.6110           0  -1.59660       1.16930    
     20756 BUTH     296      BUTH     DC3      DRUD     -2.19270      0.400000           0   0.00000       0.00000    
     20757 BUTH     296      BUTH     C4       CD2O3A    2.72690       11.6110           0  -1.26130       1.05430    
     20758 BUTH     296      BUTH     DC4      DRUD     -1.94890      0.400000           0   0.00000       0.00000    
     20759 BUTH     296      BUTH     O1       OD2C1A    1.46540       15.5994           0 -0.713100      0.569800    
     20760 BUTH     296      BUTH     DO1      DRUD     -1.46540      0.400000           0   0.00000       0.00000    
     20761 BUTH     296      BUTH     O2       OD31A     1.58240       15.5990           0 -0.831500      0.749400    
     20762 BUTH     296      BUTH     DO2      DRUD     -1.58240      0.400000           0   0.00000       0.00000    
     20763 BUTH     296      BUTH     H1       HDA3A    0.900000E-01   1.00800           0   0.00000       0.00000    
     20764 BUTH     296      BUTH     H2       HDA3A    0.900000E-01   1.00800           0   0.00000       0.00000    
     20765 BUTH     296      BUTH     H3       HDA3A    0.900000E-01   1.00800           0   0.00000       0.00000    
     20766 BUTH     296      BUTH     H4       HDA2A    0.900000E-01   1.00800           0   0.00000       0.00000    
     20767 BUTH     296      BUTH     H5       HDA2A    0.900000E-01   1.00800           0   0.00000       0.00000    
     20768 BUTH     296      BUTH     H6       HDA2A    0.900000E-01   1.00800           0   0.00000       0.00000    
     20769 BUTH     296      BUTH     H7       HDA2A    0.900000E-01   1.00800           0   0.00000       0.00000    
     20770 BUTH     296      BUTH     H8       HDP1A    0.430000       1.00800           0   0.00000       0.00000    
     20771 BUTH     296      BUTH     H9       DUMH      0.00000       1.00800           0   0.00000       0.00000    
     20772 BUTH     296      BUTH     LPO11    LPDO1   -0.287000       0.00000          -1   0.00000       0.00000    
     20773 BUTH     296      BUTH     LPO12    LPDO1   -0.288000       0.00000          -1   0.00000       0.00000    
     20774 BUTH     296      BUTH     LPO21    LPD     -0.302000       0.00000          -1   0.00000       0.00000    
     20775 BUTH     296      BUTH     LPO22    LPD     -0.303000       0.00000          -1   0.00000       0.00000    
     20776 BUTH     297      BUTH     C1       CD33A     2.05990       11.6110           0  -1.81190       1.18670    
     20777 BUTH     297      BUTH     DC1      DRUD     -2.33590      0.400000           0   0.00000       0.00000    
     20778 BUTH     297      BUTH     C2       CD32A     2.02070       11.6110           0  -1.59660       1.16930    
     20779 BUTH     297      BUTH     DC2      DRUD     -2.19270      0.400000           0   0.00000       0.00000    
     20780 BUTH     297      BUTH     C3       CD32A     1.98270       11.6110           0  -1.59660       1.16930    
     20781 BUTH     297      BUTH     DC3      DRUD     -2.19270      0.400000           0   0.00000       0.00000    
     20782 BUTH     297      BUTH     C4       CD2O3A    2.72690       11.6110           0  -1.26130       1.05430    
     20783 BUTH     297      BUTH     DC4      DRUD     -1.94890      0.400000           0   0.00000       0.00000    
     20784 BUTH     297      BUTH     O1       OD2C1A    1.46540       15.5994           0 -0.713100      0.569800    
     20785 BUTH     297      BUTH     DO1      DRUD     -1.46540      0.400000           0   0.00000       0.00000    
     20786 BUTH     297      BUTH     O2       OD31A     1.58240       15.5990           0 -0.831500      0.749400    
     20787 BUTH     297      BUTH     DO2      DRUD     -1.58240      0.400000           0   0.00000       0.00000    
     20788 BUTH     297      BUTH     H1       HDA3A    0.900000E-01   1.00800           0   0.00000       0.00000    
     20789 BUTH     297      BUTH     H2       HDA3A    0.900000E-01   1.00800           0   0.00000       0.00000    
     20790 BUTH     297      BUTH     H3       HDA3A    0.900000E-01   1.00800           0   0.00000       0.00000    
     20791 BUTH     297      BUTH     H4       HDA2A    0.900000E-01   1.00800           0   0.00000       0.00000    
     20792 BUTH     297      BUTH     H5       HDA2A    0.900000E-01   1.00800           0   0.00000       0.00000    
     20793 BUTH     297      BUTH     H6       HDA2A    0.900000E-01   1.00800           0   0.00000       0.00000    
     20794 BUTH     297      BUTH     H7       HDA2A    0.900000E-01   1.00800           0   0.00000       0.00000    
     20795 BUTH     297      BUTH     H8       HDP1A    0.430000       1.00800           0   0.00000       0.00000    
     20796 BUTH     297      BUTH     H9       DUMH      0.00000       1.00800           0   0.00000       0.00000    
     20797 BUTH     297      BUTH     LPO11    LPDO1   -0.287000       0.00000          -1   0.00000       0.00000    
     20798 BUTH     297      BUTH     LPO12    LPDO1   -0.288000       0.00000          -1   0.00000       0.00000    
     20799 BUTH     297      BUTH     LPO21    LPD     -0.302000       0.00000          -1   0.00000       0.00000    
     20800 BUTH     297      BUTH     LPO22    LPD     -0.303000       0.00000          -1   0.00000       0.00000    
     20801 BUTH     298      BUTH     C1       CD33A     2.05990       11.6110           0  -1.81190       1.18670    
     20802 BUTH     298      BUTH     DC1      DRUD     -2.33590      0.400000           0   0.00000       0.00000    
     20803 BUTH     298      BUTH     C2       CD32A     2.02070       11.6110           0  -1.59660       1.16930    
     20804 BUTH     298      BUTH     DC2      DRUD     -2.19270      0.400000           0   0.00000       0.00000    
     20805 BUTH     298      BUTH     C3       CD32A     1.98270       11.6110           0  -1.59660       1.16930    
     20806 BUTH     298      BUTH     DC3      DRUD     -2.19270      0.400000           0   0.00000       0.00000    
     20807 BUTH     298      BUTH     C4       CD2O3A    2.72690       11.6110           0  -1.26130       1.05430    
     20808 BUTH     298      BUTH     DC4      DRUD     -1.94890      0.400000           0   0.00000       0.00000    
     20809 BUTH     298      BUTH     O1       OD2C1A    1.46540       15.5994           0 -0.713100      0.569800    
     20810 BUTH     298      BUTH     DO1      DRUD     -1.46540      0.400000           0   0.00000       0.00000    
     20811 BUTH     298      BUTH     O2       OD31A     1.58240       15.5990           0 -0.831500      0.749400    
     20812 BUTH     298      BUTH     DO2      DRUD     -1.58240      0.400000           0   0.00000       0.00000    
     20813 BUTH     298      BUTH     H1       HDA3A    0.900000E-01   1.00800           0   0.00000       0.00000    
     20814 BUTH     298      BUTH     H2       HDA3A    0.900000E-01   1.00800           0   0.00000       0.00000    
     20815 BUTH     298      BUTH     H3       HDA3A    0.900000E-01   1.00800           0   0.00000       0.00000    
     20816 BUTH     298      BUTH     H4       HDA2A    0.900000E-01   1.00800           0   0.00000       0.00000    
     20817 BUTH     298      BUTH     H5       HDA2A    0.900000E-01   1.00800           0   0.00000       0.00000    
     20818 BUTH     298      BUTH     H6       HDA2A    0.900000E-01   1.00800           0   0.00000       0.00000    
     20819 BUTH     298      BUTH     H7       HDA2A    0.900000E-01   1.00800           0   0.00000       0.00000    
     20820 BUTH     298      BUTH     H8       HDP1A    0.430000       1.00800           0   0.00000       0.00000    
     20821 BUTH     298      BUTH     H9       DUMH      0.00000       1.00800           0   0.00000       0.00000    
     20822 BUTH     298      BUTH     LPO11    LPDO1   -0.287000       0.00000          -1   0.00000       0.00000    
     20823 BUTH     298      BUTH     LPO12    LPDO1   -0.288000       0.00000          -1   0.00000       0.00000    
     20824 BUTH     298      BUTH     LPO21    LPD     -0.302000       0.00000          -1   0.00000       0.00000    
     20825 BUTH     298      BUTH     LPO22    LPD     -0.303000       0.00000          -1   0.00000       0.00000    
     20826 BUTH     299      BUTH     C1       CD33A     2.05990       11.6110           0  -1.81190       1.18670    
     20827 BUTH     299      BUTH     DC1      DRUD     -2.33590      0.400000           0   0.00000       0.00000    
     20828 BUTH     299      BUTH     C2       CD32A     2.02070       11.6110           0  -1.59660       1.16930    
     20829 BUTH     299      BUTH     DC2      DRUD     -2.19270      0.400000           0   0.00000       0.00000    
     20830 BUTH     299      BUTH     C3       CD32A     1.98270       11.6110           0  -1.59660       1.16930    
     20831 BUTH     299      BUTH     DC3      DRUD     -2.19270      0.400000           0   0.00000       0.00000    
     20832 BUTH     299      BUTH     C4       CD2O3A    2.72690       11.6110           0  -1.26130       1.05430    
     20833 BUTH     299      BUTH     DC4      DRUD     -1.94890      0.400000           0   0.00000       0.00000    
     20834 BUTH     299      BUTH     O1       OD2C1A    1.46540       15.5994           0 -0.713100      0.569800    
     20835 BUTH     299      BUTH     DO1      DRUD     -1.46540      0.400000           0   0.00000       0.00000    
     20836 BUTH     299      BUTH     O2       OD31A     1.58240       15.5990           0 -0.831500      0.749400    
     20837 BUTH     299      BUTH     DO2      DRUD     -1.58240      0.400000           0   0.00000       0.00000    
     20838 BUTH     299      BUTH     H1       HDA3A    0.900000E-01   1.00800           0   0.00000       0.00000    
     20839 BUTH     299      BUTH     H2       HDA3A    0.900000E-01   1.00800           0   0.00000       0.00000    
     20840 BUTH     299      BUTH     H3       HDA3A    0.900000E-01   1.00800           0   0.00000       0.00000    
     20841 BUTH     299      BUTH     H4       HDA2A    0.900000E-01   1.00800           0   0.00000       0.00000    
     20842 BUTH     299      BUTH     H5       HDA2A    0.900000E-01   1.00800           0   0.00000       0.00000    
     20843 BUTH     299      BUTH     H6       HDA2A    0.900000E-01   1.00800           0   0.00000       0.00000    
     20844 BUTH     299      BUTH     H7       HDA2A    0.900000E-01   1.00800           0   0.00000       0.00000    
     20845 BUTH     299      BUTH     H8       HDP1A    0.430000       1.00800           0   0.00000       0.00000    
     20846 BUTH     299      BUTH     H9       DUMH      0.00000       1.00800           0   0.00000       0.00000    
     20847 BUTH     299      BUTH     LPO11    LPDO1   -0.287000       0.00000          -1   0.00000       0.00000    
     20848 BUTH     299      BUTH     LPO12    LPDO1   -0.288000       0.00000          -1   0.00000       0.00000    
     20849 BUTH     299      BUTH     LPO21    LPD     -0.302000       0.00000          -1   0.00000       0.00000    
     20850 BUTH     299      BUTH     LPO22    LPD     -0.303000       0.00000          -1   0.00000       0.00000    
     20851 BUTH     300      BUTH     C1       CD33A     2.05990       11.6110           0  -1.81190       1.18670    
     20852 BUTH     300      BUTH     DC1      DRUD     -2.33590      0.400000           0   0.00000       0.00000    
     20853 BUTH     300      BUTH     C2       CD32A     2.02070       11.6110           0  -1.59660       1.16930    
     20854 BUTH     300      BUTH     DC2      DRUD     -2.19270      0.400000           0   0.00000       0.00000    
     20855 BUTH     300      BUTH     C3       CD32A     1.98270       11.6110           0  -1.59660       1.16930    
     20856 BUTH     300      BUTH     DC3      DRUD     -2.19270      0.400000           0   0.00000       0.00000    
     20857 BUTH     300      BUTH     C4       CD2O3A    2.72690       11.6110           0  -1.26130       1.05430    
     20858 BUTH     300      BUTH     DC4      DRUD     -1.94890      0.400000           0   0.00000       0.00000    
     20859 BUTH     300      BUTH     O1       OD2C1A    1.46540       15.5994           0 -0.713100      0.569800    
     20860 BUTH     300      BUTH     DO1      DRUD     -1.46540      0.400000           0   0.00000       0.00000    
     20861 BUTH     300      BUTH     O2       OD31A     1.58240       15.5990           0 -0.831500      0.749400    
     20862 BUTH     300      BUTH     DO2      DRUD     -1.58240      0.400000           0   0.00000       0.00000    
     20863 BUTH     300      BUTH     H1       HDA3A    0.900000E-01   1.00800           0   0.00000       0.00000    
     20864 BUTH     300      BUTH     H2       HDA3A    0.900000E-01   1.00800           0   0.00000       0.00000    
     20865 BUTH     300      BUTH     H3       HDA3A    0.900000E-01   1.00800           0   0.00000       0.00000    
     20866 BUTH     300      BUTH     H4       HDA2A    0.900000E-01   1.00800           0   0.00000       0.00000    
     20867 BUTH     300      BUTH     H5       HDA2A    0.900000E-01   1.00800           0   0.00000       0.00000    
     20868 BUTH     300      BUTH     H6       HDA2A    0.900000E-01   1.00800           0   0.00000       0.00000    
     20869 BUTH     300      BUTH     H7       HDA2A    0.900000E-01   1.00800           0   0.00000       0.00000    
     20870 BUTH     300      BUTH     H8       HDP1A    0.430000       1.00800           0   0.00000       0.00000    
     20871 BUTH     300      BUTH     H9       DUMH      0.00000       1.00800           0   0.00000       0.00000    
     20872 BUTH     300      BUTH     LPO11    LPDO1   -0.287000       0.00000          -1   0.00000       0.00000    
     20873 BUTH     300      BUTH     LPO12    LPDO1   -0.288000       0.00000          -1   0.00000       0.00000    
     20874 BUTH     300      BUTH     LPO21    LPD     -0.302000       0.00000          -1   0.00000       0.00000    
     20875 BUTH     300      BUTH     LPO22    LPD     -0.303000       0.00000          -1   0.00000       0.00000    
     20876 BUTH     301      BUTH     C1       CD33A     2.05990       11.6110           0  -1.81190       1.18670    
     20877 BUTH     301      BUTH     DC1      DRUD     -2.33590      0.400000           0   0.00000       0.00000    
     20878 BUTH     301      BUTH     C2       CD32A     2.02070       11.6110           0  -1.59660       1.16930    
     20879 BUTH     301      BUTH     DC2      DRUD     -2.19270      0.400000           0   0.00000       0.00000    
     20880 BUTH     301      BUTH     C3       CD32A     1.98270       11.6110           0  -1.59660       1.16930    
     20881 BUTH     301      BUTH     DC3      DRUD     -2.19270      0.400000           0   0.00000       0.00000    
     20882 BUTH     301      BUTH     C4       CD2O3A    2.72690       11.6110           0  -1.26130       1.05430    
     20883 BUTH     301      BUTH     DC4      DRUD     -1.94890      0.400000           0   0.00000       0.00000    
     20884 BUTH     301      BUTH     O1       OD2C1A    1.46540       15.5994           0 -0.713100      0.569800    
     20885 BUTH     301      BUTH     DO1      DRUD     -1.46540      0.400000           0   0.00000       0.00000    
     20886 BUTH     301      BUTH     O2       OD31A     1.58240       15.5990           0 -0.831500      0.749400    
     20887 BUTH     301      BUTH     DO2      DRUD     -1.58240      0.400000           0   0.00000       0.00000    
     20888 BUTH     301      BUTH     H1       HDA3A    0.900000E-01   1.00800           0   0.00000       0.00000    
     20889 BUTH     301      BUTH     H2       HDA3A    0.900000E-01   1.00800           0   0.00000       0.00000    
     20890 BUTH     301      BUTH     H3       HDA3A    0.900000E-01   1.00800           0   0.00000       0.00000    
     20891 BUTH     301      BUTH     H4       HDA2A    0.900000E-01   1.00800           0   0.00000       0.00000    
     20892 BUTH     301      BUTH     H5       HDA2A    0.900000E-01   1.00800           0   0.00000       0.00000    
     20893 BUTH     301      BUTH     H6       HDA2A    0.900000E-01   1.00800           0   0.00000       0.00000    
     20894 BUTH     301      BUTH     H7       HDA2A    0.900000E-01   1.00800           0   0.00000       0.00000    
     20895 BUTH     301      BUTH     H8       HDP1A    0.430000       1.00800           0   0.00000       0.00000    
     20896 BUTH     301      BUTH     H9       DUMH      0.00000       1.00800           0   0.00000       0.00000    
     20897 BUTH     301      BUTH     LPO11    LPDO1   -0.287000       0.00000          -1   0.00000       0.00000    
     20898 BUTH     301      BUTH     LPO12    LPDO1   -0.288000       0.00000          -1   0.00000       0.00000    
     20899 BUTH     301      BUTH     LPO21    LPD     -0.302000       0.00000          -1   0.00000       0.00000    
     20900 BUTH     301      BUTH     LPO22    LPD     -0.303000       0.00000          -1   0.00000       0.00000    
     20901 BUTH     302      BUTH     C1       CD33A     2.05990       11.6110           0  -1.81190       1.18670    
     20902 BUTH     302      BUTH     DC1      DRUD     -2.33590      0.400000           0   0.00000       0.00000    
     20903 BUTH     302      BUTH     C2       CD32A     2.02070       11.6110           0  -1.59660       1.16930    
     20904 BUTH     302      BUTH     DC2      DRUD     -2.19270      0.400000           0   0.00000       0.00000    
     20905 BUTH     302      BUTH     C3       CD32A     1.98270       11.6110           0  -1.59660       1.16930    
     20906 BUTH     302      BUTH     DC3      DRUD     -2.19270      0.400000           0   0.00000       0.00000    
     20907 BUTH     302      BUTH     C4       CD2O3A    2.72690       11.6110           0  -1.26130       1.05430    
     20908 BUTH     302      BUTH     DC4      DRUD     -1.94890      0.400000           0   0.00000       0.00000    
     20909 BUTH     302      BUTH     O1       OD2C1A    1.46540       15.5994           0 -0.713100      0.569800    
     20910 BUTH     302      BUTH     DO1      DRUD     -1.46540      0.400000           0   0.00000       0.00000    
     20911 BUTH     302      BUTH     O2       OD31A     1.58240       15.5990           0 -0.831500      0.749400    
     20912 BUTH     302      BUTH     DO2      DRUD     -1.58240      0.400000           0   0.00000       0.00000    
     20913 BUTH     302      BUTH     H1       HDA3A    0.900000E-01   1.00800           0   0.00000       0.00000    
     20914 BUTH     302      BUTH     H2       HDA3A    0.900000E-01   1.00800           0   0.00000       0.00000    
     20915 BUTH     302      BUTH     H3       HDA3A    0.900000E-01   1.00800           0   0.00000       0.00000    
     20916 BUTH     302      BUTH     H4       HDA2A    0.900000E-01   1.00800           0   0.00000       0.00000    
     20917 BUTH     302      BUTH     H5       HDA2A    0.900000E-01   1.00800           0   0.00000       0.00000    
     20918 BUTH     302      BUTH     H6       HDA2A    0.900000E-01   1.00800           0   0.00000       0.00000    
     20919 BUTH     302      BUTH     H7       HDA2A    0.900000E-01   1.00800           0   0.00000       0.00000    
     20920 BUTH     302      BUTH     H8       HDP1A    0.430000       1.00800           0   0.00000       0.00000    
     20921 BUTH     302      BUTH     H9       DUMH      0.00000       1.00800           0   0.00000       0.00000    
     20922 BUTH     302      BUTH     LPO11    LPDO1   -0.287000       0.00000          -1   0.00000       0.00000    
     20923 BUTH     302      BUTH     LPO12    LPDO1   -0.288000       0.00000          -1   0.00000       0.00000    
     20924 BUTH     302      BUTH     LPO21    LPD     -0.302000       0.00000          -1   0.00000       0.00000    
     20925 BUTH     302      BUTH     LPO22    LPD     -0.303000       0.00000          -1   0.00000       0.00000    
     20926 BUTH     303      BUTH     C1       CD33A     2.05990       11.6110           0  -1.81190       1.18670    
     20927 BUTH     303      BUTH     DC1      DRUD     -2.33590      0.400000           0   0.00000       0.00000    
     20928 BUTH     303      BUTH     C2       CD32A     2.02070       11.6110           0  -1.59660       1.16930    
     20929 BUTH     303      BUTH     DC2      DRUD     -2.19270      0.400000           0   0.00000       0.00000    
     20930 BUTH     303      BUTH     C3       CD32A     1.98270       11.6110           0  -1.59660       1.16930    
     20931 BUTH     303      BUTH     DC3      DRUD     -2.19270      0.400000           0   0.00000       0.00000    
     20932 BUTH     303      BUTH     C4       CD2O3A    2.72690       11.6110           0  -1.26130       1.05430    
     20933 BUTH     303      BUTH     DC4      DRUD     -1.94890      0.400000           0   0.00000       0.00000    
     20934 BUTH     303      BUTH     O1       OD2C1A    1.46540       15.5994           0 -0.713100      0.569800    
     20935 BUTH     303      BUTH     DO1      DRUD     -1.46540      0.400000           0   0.00000       0.00000    
     20936 BUTH     303      BUTH     O2       OD31A     1.58240       15.5990           0 -0.831500      0.749400    
     20937 BUTH     303      BUTH     DO2      DRUD     -1.58240      0.400000           0   0.00000       0.00000    
     20938 BUTH     303      BUTH     H1       HDA3A    0.900000E-01   1.00800           0   0.00000       0.00000    
     20939 BUTH     303      BUTH     H2       HDA3A    0.900000E-01   1.00800           0   0.00000       0.00000    
     20940 BUTH     303      BUTH     H3       HDA3A    0.900000E-01   1.00800           0   0.00000       0.00000    
     20941 BUTH     303      BUTH     H4       HDA2A    0.900000E-01   1.00800           0   0.00000       0.00000    
     20942 BUTH     303      BUTH     H5       HDA2A    0.900000E-01   1.00800           0   0.00000       0.00000    
     20943 BUTH     303      BUTH     H6       HDA2A    0.900000E-01   1.00800           0   0.00000       0.00000    
     20944 BUTH     303      BUTH     H7       HDA2A    0.900000E-01   1.00800           0   0.00000       0.00000    
     20945 BUTH     303      BUTH     H8       HDP1A    0.430000       1.00800           0   0.00000       0.00000    
     20946 BUTH     303      BUTH     H9       DUMH      0.00000       1.00800           0   0.00000       0.00000    
     20947 BUTH     303      BUTH     LPO11    LPDO1   -0.287000       0.00000          -1   0.00000       0.00000    
     20948 BUTH     303      BUTH     LPO12    LPDO1   -0.288000       0.00000          -1   0.00000       0.00000    
     20949 BUTH     303      BUTH     LPO21    LPD     -0.302000       0.00000          -1   0.00000       0.00000    
     20950 BUTH     303      BUTH     LPO22    LPD     -0.303000       0.00000          -1   0.00000       0.00000    
     20951 BUTH     304      BUTH     C1       CD33A     2.05990       11.6110           0  -1.81190       1.18670    
     20952 BUTH     304      BUTH     DC1      DRUD     -2.33590      0.400000           0   0.00000       0.00000    
     20953 BUTH     304      BUTH     C2       CD32A     2.02070       11.6110           0  -1.59660       1.16930    
     20954 BUTH     304      BUTH     DC2      DRUD     -2.19270      0.400000           0   0.00000       0.00000    
     20955 BUTH     304      BUTH     C3       CD32A     1.98270       11.6110           0  -1.59660       1.16930    
     20956 BUTH     304      BUTH     DC3      DRUD     -2.19270      0.400000           0   0.00000       0.00000    
     20957 BUTH     304      BUTH     C4       CD2O3A    2.72690       11.6110           0  -1.26130       1.05430    
     20958 BUTH     304      BUTH     DC4      DRUD     -1.94890      0.400000           0   0.00000       0.00000    
     20959 BUTH     304      BUTH     O1       OD2C1A    1.46540       15.5994           0 -0.713100      0.569800    
     20960 BUTH     304      BUTH     DO1      DRUD     -1.46540      0.400000           0   0.00000       0.00000    
     20961 BUTH     304      BUTH     O2       OD31A     1.58240       15.5990           0 -0.831500      0.749400    
     20962 BUTH     304      BUTH     DO2      DRUD     -1.58240      0.400000           0   0.00000       0.00000    
     20963 BUTH     304      BUTH     H1       HDA3A    0.900000E-01   1.00800           0   0.00000       0.00000    
     20964 BUTH     304      BUTH     H2       HDA3A    0.900000E-01   1.00800           0   0.00000       0.00000    
     20965 BUTH     304      BUTH     H3       HDA3A    0.900000E-01   1.00800           0   0.00000       0.00000    
     20966 BUTH     304      BUTH     H4       HDA2A    0.900000E-01   1.00800           0   0.00000       0.00000    
     20967 BUTH     304      BUTH     H5       HDA2A    0.900000E-01   1.00800           0   0.00000       0.00000    
     20968 BUTH     304      BUTH     H6       HDA2A    0.900000E-01   1.00800           0   0.00000       0.00000    
     20969 BUTH     304      BUTH     H7       HDA2A    0.900000E-01   1.00800           0   0.00000       0.00000    
     20970 BUTH     304      BUTH     H8       HDP1A    0.430000       1.00800           0   0.00000       0.00000    
     20971 BUTH     304      BUTH     H9       DUMH      0.00000       1.00800           0   0.00000       0.00000    
     20972 BUTH     304      BUTH     LPO11    LPDO1   -0.287000       0.00000          -1   0.00000       0.00000    
     20973 BUTH     304      BUTH     LPO12    LPDO1   -0.288000       0.00000          -1   0.00000       0.00000    
     20974 BUTH     304      BUTH     LPO21    LPD     -0.302000       0.00000          -1   0.00000       0.00000    
     20975 BUTH     304      BUTH     LPO22    LPD     -0.303000       0.00000          -1   0.00000       0.00000    
     20976 BUTH     305      BUTH     C1       CD33A     2.05990       11.6110           0  -1.81190       1.18670    
     20977 BUTH     305      BUTH     DC1      DRUD     -2.33590      0.400000           0   0.00000       0.00000    
     20978 BUTH     305      BUTH     C2       CD32A     2.02070       11.6110           0  -1.59660       1.16930    
     20979 BUTH     305      BUTH     DC2      DRUD     -2.19270      0.400000           0   0.00000       0.00000    
     20980 BUTH     305      BUTH     C3       CD32A     1.98270       11.6110           0  -1.59660       1.16930    
     20981 BUTH     305      BUTH     DC3      DRUD     -2.19270      0.400000           0   0.00000       0.00000    
     20982 BUTH     305      BUTH     C4       CD2O3A    2.72690       11.6110           0  -1.26130       1.05430    
     20983 BUTH     305      BUTH     DC4      DRUD     -1.94890      0.400000           0   0.00000       0.00000    
     20984 BUTH     305      BUTH     O1       OD2C1A    1.46540       15.5994           0 -0.713100      0.569800    
     20985 BUTH     305      BUTH     DO1      DRUD     -1.46540      0.400000           0   0.00000       0.00000    
     20986 BUTH     305      BUTH     O2       OD31A     1.58240       15.5990           0 -0.831500      0.749400    
     20987 BUTH     305      BUTH     DO2      DRUD     -1.58240      0.400000           0   0.00000       0.00000    
     20988 BUTH     305      BUTH     H1       HDA3A    0.900000E-01   1.00800           0   0.00000       0.00000    
     20989 BUTH     305      BUTH     H2       HDA3A    0.900000E-01   1.00800           0   0.00000       0.00000    
     20990 BUTH     305      BUTH     H3       HDA3A    0.900000E-01   1.00800           0   0.00000       0.00000    
     20991 BUTH     305      BUTH     H4       HDA2A    0.900000E-01   1.00800           0   0.00000       0.00000    
     20992 BUTH     305      BUTH     H5       HDA2A    0.900000E-01   1.00800           0   0.00000       0.00000    
     20993 BUTH     305      BUTH     H6       HDA2A    0.900000E-01   1.00800           0   0.00000       0.00000    
     20994 BUTH     305      BUTH     H7       HDA2A    0.900000E-01   1.00800           0   0.00000       0.00000    
     20995 BUTH     305      BUTH     H8       HDP1A    0.430000       1.00800           0   0.00000       0.00000    
     20996 BUTH     305      BUTH     H9       DUMH      0.00000       1.00800           0   0.00000       0.00000    
     20997 BUTH     305      BUTH     LPO11    LPDO1   -0.287000       0.00000          -1   0.00000       0.00000    
     20998 BUTH     305      BUTH     LPO12    LPDO1   -0.288000       0.00000          -1   0.00000       0.00000    
     20999 BUTH     305      BUTH     LPO21    LPD     -0.302000       0.00000          -1   0.00000       0.00000    
     21000 BUTH     305      BUTH     LPO22    LPD     -0.303000       0.00000          -1   0.00000       0.00000    
     21001 BUTH     306      BUTH     C1       CD33A     2.05990       11.6110           0  -1.81190       1.18670    
     21002 BUTH     306      BUTH     DC1      DRUD     -2.33590      0.400000           0   0.00000       0.00000    
     21003 BUTH     306      BUTH     C2       CD32A     2.02070       11.6110           0  -1.59660       1.16930    
     21004 BUTH     306      BUTH     DC2      DRUD     -2.19270      0.400000           0   0.00000       0.00000    
     21005 BUTH     306      BUTH     C3       CD32A     1.98270       11.6110           0  -1.59660       1.16930    
     21006 BUTH     306      BUTH     DC3      DRUD     -2.19270      0.400000           0   0.00000       0.00000    
     21007 BUTH     306      BUTH     C4       CD2O3A    2.72690       11.6110           0  -1.26130       1.05430    
     21008 BUTH     306      BUTH     DC4      DRUD     -1.94890      0.400000           0   0.00000       0.00000    
     21009 BUTH     306      BUTH     O1       OD2C1A    1.46540       15.5994           0 -0.713100      0.569800    
     21010 BUTH     306      BUTH     DO1      DRUD     -1.46540      0.400000           0   0.00000       0.00000    
     21011 BUTH     306      BUTH     O2       OD31A     1.58240       15.5990           0 -0.831500      0.749400    
     21012 BUTH     306      BUTH     DO2      DRUD     -1.58240      0.400000           0   0.00000       0.00000    
     21013 BUTH     306      BUTH     H1       HDA3A    0.900000E-01   1.00800           0   0.00000       0.00000    
     21014 BUTH     306      BUTH     H2       HDA3A    0.900000E-01   1.00800           0   0.00000       0.00000    
     21015 BUTH     306      BUTH     H3       HDA3A    0.900000E-01   1.00800           0   0.00000       0.00000    
     21016 BUTH     306      BUTH     H4       HDA2A    0.900000E-01   1.00800           0   0.00000       0.00000    
     21017 BUTH     306      BUTH     H5       HDA2A    0.900000E-01   1.00800           0   0.00000       0.00000    
     21018 BUTH     306      BUTH     H6       HDA2A    0.900000E-01   1.00800           0   0.00000       0.00000    
     21019 BUTH     306      BUTH     H7       HDA2A    0.900000E-01   1.00800           0   0.00000       0.00000    
     21020 BUTH     306      BUTH     H8       HDP1A    0.430000       1.00800           0   0.00000       0.00000    
     21021 BUTH     306      BUTH     H9       DUMH      0.00000       1.00800           0   0.00000       0.00000    
     21022 BUTH     306      BUTH     LPO11    LPDO1   -0.287000       0.00000          -1   0.00000       0.00000    
     21023 BUTH     306      BUTH     LPO12    LPDO1   -0.288000       0.00000          -1   0.00000       0.00000    
     21024 BUTH     306      BUTH     LPO21    LPD     -0.302000       0.00000          -1   0.00000       0.00000    
     21025 BUTH     306      BUTH     LPO22    LPD     -0.303000       0.00000          -1   0.00000       0.00000    
     21026 BUTH     307      BUTH     C1       CD33A     2.05990       11.6110           0  -1.81190       1.18670    
     21027 BUTH     307      BUTH     DC1      DRUD     -2.33590      0.400000           0   0.00000       0.00000    
     21028 BUTH     307      BUTH     C2       CD32A     2.02070       11.6110           0  -1.59660       1.16930    
     21029 BUTH     307      BUTH     DC2      DRUD     -2.19270      0.400000           0   0.00000       0.00000    
     21030 BUTH     307      BUTH     C3       CD32A     1.98270       11.6110           0  -1.59660       1.16930    
     21031 BUTH     307      BUTH     DC3      DRUD     -2.19270      0.400000           0   0.00000       0.00000    
     21032 BUTH     307      BUTH     C4       CD2O3A    2.72690       11.6110           0  -1.26130       1.05430    
     21033 BUTH     307      BUTH     DC4      DRUD     -1.94890      0.400000           0   0.00000       0.00000    
     21034 BUTH     307      BUTH     O1       OD2C1A    1.46540       15.5994           0 -0.713100      0.569800    
     21035 BUTH     307      BUTH     DO1      DRUD     -1.46540      0.400000           0   0.00000       0.00000    
     21036 BUTH     307      BUTH     O2       OD31A     1.58240       15.5990           0 -0.831500      0.749400    
     21037 BUTH     307      BUTH     DO2      DRUD     -1.58240      0.400000           0   0.00000       0.00000    
     21038 BUTH     307      BUTH     H1       HDA3A    0.900000E-01   1.00800           0   0.00000       0.00000    
     21039 BUTH     307      BUTH     H2       HDA3A    0.900000E-01   1.00800           0   0.00000       0.00000    
     21040 BUTH     307      BUTH     H3       HDA3A    0.900000E-01   1.00800           0   0.00000       0.00000    
     21041 BUTH     307      BUTH     H4       HDA2A    0.900000E-01   1.00800           0   0.00000       0.00000    
     21042 BUTH     307      BUTH     H5       HDA2A    0.900000E-01   1.00800           0   0.00000       0.00000    
     21043 BUTH     307      BUTH     H6       HDA2A    0.900000E-01   1.00800           0   0.00000       0.00000    
     21044 BUTH     307      BUTH     H7       HDA2A    0.900000E-01   1.00800           0   0.00000       0.00000    
     21045 BUTH     307      BUTH     H8       HDP1A    0.430000       1.00800           0   0.00000       0.00000    
     21046 BUTH     307      BUTH     H9       DUMH      0.00000       1.00800           0   0.00000       0.00000    
     21047 BUTH     307      BUTH     LPO11    LPDO1   -0.287000       0.00000          -1   0.00000       0.00000    
     21048 BUTH     307      BUTH     LPO12    LPDO1   -0.288000       0.00000          -1   0.00000       0.00000    
     21049 BUTH     307      BUTH     LPO21    LPD     -0.302000       0.00000          -1   0.00000       0.00000    
     21050 BUTH     307      BUTH     LPO22    LPD     -0.303000       0.00000          -1   0.00000       0.00000    
     21051 BUTH     308      BUTH     C1       CD33A     2.05990       11.6110           0  -1.81190       1.18670    
     21052 BUTH     308      BUTH     DC1      DRUD     -2.33590      0.400000           0   0.00000       0.00000    
     21053 BUTH     308      BUTH     C2       CD32A     2.02070       11.6110           0  -1.59660       1.16930    
     21054 BUTH     308      BUTH     DC2      DRUD     -2.19270      0.400000           0   0.00000       0.00000    
     21055 BUTH     308      BUTH     C3       CD32A     1.98270       11.6110           0  -1.59660       1.16930    
     21056 BUTH     308      BUTH     DC3      DRUD     -2.19270      0.400000           0   0.00000       0.00000    
     21057 BUTH     308      BUTH     C4       CD2O3A    2.72690       11.6110           0  -1.26130       1.05430    
     21058 BUTH     308      BUTH     DC4      DRUD     -1.94890      0.400000           0   0.00000       0.00000    
     21059 BUTH     308      BUTH     O1       OD2C1A    1.46540       15.5994           0 -0.713100      0.569800    
     21060 BUTH     308      BUTH     DO1      DRUD     -1.46540      0.400000           0   0.00000       0.00000    
     21061 BUTH     308      BUTH     O2       OD31A     1.58240       15.5990           0 -0.831500      0.749400    
     21062 BUTH     308      BUTH     DO2      DRUD     -1.58240      0.400000           0   0.00000       0.00000    
     21063 BUTH     308      BUTH     H1       HDA3A    0.900000E-01   1.00800           0   0.00000       0.00000    
     21064 BUTH     308      BUTH     H2       HDA3A    0.900000E-01   1.00800           0   0.00000       0.00000    
     21065 BUTH     308      BUTH     H3       HDA3A    0.900000E-01   1.00800           0   0.00000       0.00000    
     21066 BUTH     308      BUTH     H4       HDA2A    0.900000E-01   1.00800           0   0.00000       0.00000    
     21067 BUTH     308      BUTH     H5       HDA2A    0.900000E-01   1.00800           0   0.00000       0.00000    
     21068 BUTH     308      BUTH     H6       HDA2A    0.900000E-01   1.00800           0   0.00000       0.00000    
     21069 BUTH     308      BUTH     H7       HDA2A    0.900000E-01   1.00800           0   0.00000       0.00000    
     21070 BUTH     308      BUTH     H8       HDP1A    0.430000       1.00800           0   0.00000       0.00000    
     21071 BUTH     308      BUTH     H9       DUMH      0.00000       1.00800           0   0.00000       0.00000    
     21072 BUTH     308      BUTH     LPO11    LPDO1   -0.287000       0.00000          -1   0.00000       0.00000    
     21073 BUTH     308      BUTH     LPO12    LPDO1   -0.288000       0.00000          -1   0.00000       0.00000    
     21074 BUTH     308      BUTH     LPO21    LPD     -0.302000       0.00000          -1   0.00000       0.00000    
     21075 BUTH     308      BUTH     LPO22    LPD     -0.303000       0.00000          -1   0.00000       0.00000    
     21076 BUTH     309      BUTH     C1       CD33A     2.05990       11.6110           0  -1.81190       1.18670    
     21077 BUTH     309      BUTH     DC1      DRUD     -2.33590      0.400000           0   0.00000       0.00000    
     21078 BUTH     309      BUTH     C2       CD32A     2.02070       11.6110           0  -1.59660       1.16930    
     21079 BUTH     309      BUTH     DC2      DRUD     -2.19270      0.400000           0   0.00000       0.00000    
     21080 BUTH     309      BUTH     C3       CD32A     1.98270       11.6110           0  -1.59660       1.16930    
     21081 BUTH     309      BUTH     DC3      DRUD     -2.19270      0.400000           0   0.00000       0.00000    
     21082 BUTH     309      BUTH     C4       CD2O3A    2.72690       11.6110           0  -1.26130       1.05430    
     21083 BUTH     309      BUTH     DC4      DRUD     -1.94890      0.400000           0   0.00000       0.00000    
     21084 BUTH     309      BUTH     O1       OD2C1A    1.46540       15.5994           0 -0.713100      0.569800    
     21085 BUTH     309      BUTH     DO1      DRUD     -1.46540      0.400000           0   0.00000       0.00000    
     21086 BUTH     309      BUTH     O2       OD31A     1.58240       15.5990           0 -0.831500      0.749400    
     21087 BUTH     309      BUTH     DO2      DRUD     -1.58240      0.400000           0   0.00000       0.00000    
     21088 BUTH     309      BUTH     H1       HDA3A    0.900000E-01   1.00800           0   0.00000       0.00000    
     21089 BUTH     309      BUTH     H2       HDA3A    0.900000E-01   1.00800           0   0.00000       0.00000    
     21090 BUTH     309      BUTH     H3       HDA3A    0.900000E-01   1.00800           0   0.00000       0.00000    
     21091 BUTH     309      BUTH     H4       HDA2A    0.900000E-01   1.00800           0   0.00000       0.00000    
     21092 BUTH     309      BUTH     H5       HDA2A    0.900000E-01   1.00800           0   0.00000       0.00000    
     21093 BUTH     309      BUTH     H6       HDA2A    0.900000E-01   1.00800           0   0.00000       0.00000    
     21094 BUTH     309      BUTH     H7       HDA2A    0.900000E-01   1.00800           0   0.00000       0.00000    
     21095 BUTH     309      BUTH     H8       HDP1A    0.430000       1.00800           0   0.00000       0.00000    
     21096 BUTH     309      BUTH     H9       DUMH      0.00000       1.00800           0   0.00000       0.00000    
     21097 BUTH     309      BUTH     LPO11    LPDO1   -0.287000       0.00000          -1   0.00000       0.00000    
     21098 BUTH     309      BUTH     LPO12    LPDO1   -0.288000       0.00000          -1   0.00000       0.00000    
     21099 BUTH     309      BUTH     LPO21    LPD     -0.302000       0.00000          -1   0.00000       0.00000    
     21100 BUTH     309      BUTH     LPO22    LPD     -0.303000       0.00000          -1   0.00000       0.00000    
     21101 BUTH     310      BUTH     C1       CD33A     2.05990       11.6110           0  -1.81190       1.18670    
     21102 BUTH     310      BUTH     DC1      DRUD     -2.33590      0.400000           0   0.00000       0.00000    
     21103 BUTH     310      BUTH     C2       CD32A     2.02070       11.6110           0  -1.59660       1.16930    
     21104 BUTH     310      BUTH     DC2      DRUD     -2.19270      0.400000           0   0.00000       0.00000    
     21105 BUTH     310      BUTH     C3       CD32A     1.98270       11.6110           0  -1.59660       1.16930    
     21106 BUTH     310      BUTH     DC3      DRUD     -2.19270      0.400000           0   0.00000       0.00000    
     21107 BUTH     310      BUTH     C4       CD2O3A    2.72690       11.6110           0  -1.26130       1.05430    
     21108 BUTH     310      BUTH     DC4      DRUD     -1.94890      0.400000           0   0.00000       0.00000    
     21109 BUTH     310      BUTH     O1       OD2C1A    1.46540       15.5994           0 -0.713100      0.569800    
     21110 BUTH     310      BUTH     DO1      DRUD     -1.46540      0.400000           0   0.00000       0.00000    
     21111 BUTH     310      BUTH     O2       OD31A     1.58240       15.5990           0 -0.831500      0.749400    
     21112 BUTH     310      BUTH     DO2      DRUD     -1.58240      0.400000           0   0.00000       0.00000    
     21113 BUTH     310      BUTH     H1       HDA3A    0.900000E-01   1.00800           0   0.00000       0.00000    
     21114 BUTH     310      BUTH     H2       HDA3A    0.900000E-01   1.00800           0   0.00000       0.00000    
     21115 BUTH     310      BUTH     H3       HDA3A    0.900000E-01   1.00800           0   0.00000       0.00000    
     21116 BUTH     310      BUTH     H4       HDA2A    0.900000E-01   1.00800           0   0.00000       0.00000    
     21117 BUTH     310      BUTH     H5       HDA2A    0.900000E-01   1.00800           0   0.00000       0.00000    
     21118 BUTH     310      BUTH     H6       HDA2A    0.900000E-01   1.00800           0   0.00000       0.00000    
     21119 BUTH     310      BUTH     H7       HDA2A    0.900000E-01   1.00800           0   0.00000       0.00000    
     21120 BUTH     310      BUTH     H8       HDP1A    0.430000       1.00800           0   0.00000       0.00000    
     21121 BUTH     310      BUTH     H9       DUMH      0.00000       1.00800           0   0.00000       0.00000    
     21122 BUTH     310      BUTH     LPO11    LPDO1   -0.287000       0.00000          -1   0.00000       0.00000    
     21123 BUTH     310      BUTH     LPO12    LPDO1   -0.288000       0.00000          -1   0.00000       0.00000    
     21124 BUTH     310      BUTH     LPO21    LPD     -0.302000       0.00000          -1   0.00000       0.00000    
     21125 BUTH     310      BUTH     LPO22    LPD     -0.303000       0.00000          -1   0.00000       0.00000    
     21126 BUTH     311      BUTH     C1       CD33A     2.05990       11.6110           0  -1.81190       1.18670    
     21127 BUTH     311      BUTH     DC1      DRUD     -2.33590      0.400000           0   0.00000       0.00000    
     21128 BUTH     311      BUTH     C2       CD32A     2.02070       11.6110           0  -1.59660       1.16930    
     21129 BUTH     311      BUTH     DC2      DRUD     -2.19270      0.400000           0   0.00000       0.00000    
     21130 BUTH     311      BUTH     C3       CD32A     1.98270       11.6110           0  -1.59660       1.16930    
     21131 BUTH     311      BUTH     DC3      DRUD     -2.19270      0.400000           0   0.00000       0.00000    
     21132 BUTH     311      BUTH     C4       CD2O3A    2.72690       11.6110           0  -1.26130       1.05430    
     21133 BUTH     311      BUTH     DC4      DRUD     -1.94890      0.400000           0   0.00000       0.00000    
     21134 BUTH     311      BUTH     O1       OD2C1A    1.46540       15.5994           0 -0.713100      0.569800    
     21135 BUTH     311      BUTH     DO1      DRUD     -1.46540      0.400000           0   0.00000       0.00000    
     21136 BUTH     311      BUTH     O2       OD31A     1.58240       15.5990           0 -0.831500      0.749400    
     21137 BUTH     311      BUTH     DO2      DRUD     -1.58240      0.400000           0   0.00000       0.00000    
     21138 BUTH     311      BUTH     H1       HDA3A    0.900000E-01   1.00800           0   0.00000       0.00000    
     21139 BUTH     311      BUTH     H2       HDA3A    0.900000E-01   1.00800           0   0.00000       0.00000    
     21140 BUTH     311      BUTH     H3       HDA3A    0.900000E-01   1.00800           0   0.00000       0.00000    
     21141 BUTH     311      BUTH     H4       HDA2A    0.900000E-01   1.00800           0   0.00000       0.00000    
     21142 BUTH     311      BUTH     H5       HDA2A    0.900000E-01   1.00800           0   0.00000       0.00000    
     21143 BUTH     311      BUTH     H6       HDA2A    0.900000E-01   1.00800           0   0.00000       0.00000    
     21144 BUTH     311      BUTH     H7       HDA2A    0.900000E-01   1.00800           0   0.00000       0.00000    
     21145 BUTH     311      BUTH     H8       HDP1A    0.430000       1.00800           0   0.00000       0.00000    
     21146 BUTH     311      BUTH     H9       DUMH      0.00000       1.00800           0   0.00000       0.00000    
     21147 BUTH     311      BUTH     LPO11    LPDO1   -0.287000       0.00000          -1   0.00000       0.00000    
     21148 BUTH     311      BUTH     LPO12    LPDO1   -0.288000       0.00000          -1   0.00000       0.00000    
     21149 BUTH     311      BUTH     LPO21    LPD     -0.302000       0.00000          -1   0.00000       0.00000    
     21150 BUTH     311      BUTH     LPO22    LPD     -0.303000       0.00000          -1   0.00000       0.00000    
     21151 BUTH     312      BUTH     C1       CD33A     2.05990       11.6110           0  -1.81190       1.18670    
     21152 BUTH     312      BUTH     DC1      DRUD     -2.33590      0.400000           0   0.00000       0.00000    
     21153 BUTH     312      BUTH     C2       CD32A     2.02070       11.6110           0  -1.59660       1.16930    
     21154 BUTH     312      BUTH     DC2      DRUD     -2.19270      0.400000           0   0.00000       0.00000    
     21155 BUTH     312      BUTH     C3       CD32A     1.98270       11.6110           0  -1.59660       1.16930    
     21156 BUTH     312      BUTH     DC3      DRUD     -2.19270      0.400000           0   0.00000       0.00000    
     21157 BUTH     312      BUTH     C4       CD2O3A    2.72690       11.6110           0  -1.26130       1.05430    
     21158 BUTH     312      BUTH     DC4      DRUD     -1.94890      0.400000           0   0.00000       0.00000    
     21159 BUTH     312      BUTH     O1       OD2C1A    1.46540       15.5994           0 -0.713100      0.569800    
     21160 BUTH     312      BUTH     DO1      DRUD     -1.46540      0.400000           0   0.00000       0.00000    
     21161 BUTH     312      BUTH     O2       OD31A     1.58240       15.5990           0 -0.831500      0.749400    
     21162 BUTH     312      BUTH     DO2      DRUD     -1.58240      0.400000           0   0.00000       0.00000    
     21163 BUTH     312      BUTH     H1       HDA3A    0.900000E-01   1.00800           0   0.00000       0.00000    
     21164 BUTH     312      BUTH     H2       HDA3A    0.900000E-01   1.00800           0   0.00000       0.00000    
     21165 BUTH     312      BUTH     H3       HDA3A    0.900000E-01   1.00800           0   0.00000       0.00000    
     21166 BUTH     312      BUTH     H4       HDA2A    0.900000E-01   1.00800           0   0.00000       0.00000    
     21167 BUTH     312      BUTH     H5       HDA2A    0.900000E-01   1.00800           0   0.00000       0.00000    
     21168 BUTH     312      BUTH     H6       HDA2A    0.900000E-01   1.00800           0   0.00000       0.00000    
     21169 BUTH     312      BUTH     H7       HDA2A    0.900000E-01   1.00800           0   0.00000       0.00000    
     21170 BUTH     312      BUTH     H8       HDP1A    0.430000       1.00800           0   0.00000       0.00000    
     21171 BUTH     312      BUTH     H9       DUMH      0.00000       1.00800           0   0.00000       0.00000    
     21172 BUTH     312      BUTH     LPO11    LPDO1   -0.287000       0.00000          -1   0.00000       0.00000    
     21173 BUTH     312      BUTH     LPO12    LPDO1   -0.288000       0.00000          -1   0.00000       0.00000    
     21174 BUTH     312      BUTH     LPO21    LPD     -0.302000       0.00000          -1   0.00000       0.00000    
     21175 BUTH     312      BUTH     LPO22    LPD     -0.303000       0.00000          -1   0.00000       0.00000    
     21176 BUTH     313      BUTH     C1       CD33A     2.05990       11.6110           0  -1.81190       1.18670    
     21177 BUTH     313      BUTH     DC1      DRUD     -2.33590      0.400000           0   0.00000       0.00000    
     21178 BUTH     313      BUTH     C2       CD32A     2.02070       11.6110           0  -1.59660       1.16930    
     21179 BUTH     313      BUTH     DC2      DRUD     -2.19270      0.400000           0   0.00000       0.00000    
     21180 BUTH     313      BUTH     C3       CD32A     1.98270       11.6110           0  -1.59660       1.16930    
     21181 BUTH     313      BUTH     DC3      DRUD     -2.19270      0.400000           0   0.00000       0.00000    
     21182 BUTH     313      BUTH     C4       CD2O3A    2.72690       11.6110           0  -1.26130       1.05430    
     21183 BUTH     313      BUTH     DC4      DRUD     -1.94890      0.400000           0   0.00000       0.00000    
     21184 BUTH     313      BUTH     O1       OD2C1A    1.46540       15.5994           0 -0.713100      0.569800    
     21185 BUTH     313      BUTH     DO1      DRUD     -1.46540      0.400000           0   0.00000       0.00000    
     21186 BUTH     313      BUTH     O2       OD31A     1.58240       15.5990           0 -0.831500      0.749400    
     21187 BUTH     313      BUTH     DO2      DRUD     -1.58240      0.400000           0   0.00000       0.00000    
     21188 BUTH     313      BUTH     H1       HDA3A    0.900000E-01   1.00800           0   0.00000       0.00000    
     21189 BUTH     313      BUTH     H2       HDA3A    0.900000E-01   1.00800           0   0.00000       0.00000    
     21190 BUTH     313      BUTH     H3       HDA3A    0.900000E-01   1.00800           0   0.00000       0.00000    
     21191 BUTH     313      BUTH     H4       HDA2A    0.900000E-01   1.00800           0   0.00000       0.00000    
     21192 BUTH     313      BUTH     H5       HDA2A    0.900000E-01   1.00800           0   0.00000       0.00000    
     21193 BUTH     313      BUTH     H6       HDA2A    0.900000E-01   1.00800           0   0.00000       0.00000    
     21194 BUTH     313      BUTH     H7       HDA2A    0.900000E-01   1.00800           0   0.00000       0.00000    
     21195 BUTH     313      BUTH     H8       HDP1A    0.430000       1.00800           0   0.00000       0.00000    
     21196 BUTH     313      BUTH     H9       DUMH      0.00000       1.00800           0   0.00000       0.00000    
     21197 BUTH     313      BUTH     LPO11    LPDO1   -0.287000       0.00000          -1   0.00000       0.00000    
     21198 BUTH     313      BUTH     LPO12    LPDO1   -0.288000       0.00000          -1   0.00000       0.00000    
     21199 BUTH     313      BUTH     LPO21    LPD     -0.302000       0.00000          -1   0.00000       0.00000    
     21200 BUTH     313      BUTH     LPO22    LPD     -0.303000       0.00000          -1   0.00000       0.00000    
     21201 BUTH     314      BUTH     C1       CD33A     2.05990       11.6110           0  -1.81190       1.18670    
     21202 BUTH     314      BUTH     DC1      DRUD     -2.33590      0.400000           0   0.00000       0.00000    
     21203 BUTH     314      BUTH     C2       CD32A     2.02070       11.6110           0  -1.59660       1.16930    
     21204 BUTH     314      BUTH     DC2      DRUD     -2.19270      0.400000           0   0.00000       0.00000    
     21205 BUTH     314      BUTH     C3       CD32A     1.98270       11.6110           0  -1.59660       1.16930    
     21206 BUTH     314      BUTH     DC3      DRUD     -2.19270      0.400000           0   0.00000       0.00000    
     21207 BUTH     314      BUTH     C4       CD2O3A    2.72690       11.6110           0  -1.26130       1.05430    
     21208 BUTH     314      BUTH     DC4      DRUD     -1.94890      0.400000           0   0.00000       0.00000    
     21209 BUTH     314      BUTH     O1       OD2C1A    1.46540       15.5994           0 -0.713100      0.569800    
     21210 BUTH     314      BUTH     DO1      DRUD     -1.46540      0.400000           0   0.00000       0.00000    
     21211 BUTH     314      BUTH     O2       OD31A     1.58240       15.5990           0 -0.831500      0.749400    
     21212 BUTH     314      BUTH     DO2      DRUD     -1.58240      0.400000           0   0.00000       0.00000    
     21213 BUTH     314      BUTH     H1       HDA3A    0.900000E-01   1.00800           0   0.00000       0.00000    
     21214 BUTH     314      BUTH     H2       HDA3A    0.900000E-01   1.00800           0   0.00000       0.00000    
     21215 BUTH     314      BUTH     H3       HDA3A    0.900000E-01   1.00800           0   0.00000       0.00000    
     21216 BUTH     314      BUTH     H4       HDA2A    0.900000E-01   1.00800           0   0.00000       0.00000    
     21217 BUTH     314      BUTH     H5       HDA2A    0.900000E-01   1.00800           0   0.00000       0.00000    
     21218 BUTH     314      BUTH     H6       HDA2A    0.900000E-01   1.00800           0   0.00000       0.00000    
     21219 BUTH     314      BUTH     H7       HDA2A    0.900000E-01   1.00800           0   0.00000       0.00000    
     21220 BUTH     314      BUTH     H8       HDP1A    0.430000       1.00800           0   0.00000       0.00000    
     21221 BUTH     314      BUTH     H9       DUMH      0.00000       1.00800           0   0.00000       0.00000    
     21222 BUTH     314      BUTH     LPO11    LPDO1   -0.287000       0.00000          -1   0.00000       0.00000    
     21223 BUTH     314      BUTH     LPO12    LPDO1   -0.288000       0.00000          -1   0.00000       0.00000    
     21224 BUTH     314      BUTH     LPO21    LPD     -0.302000       0.00000          -1   0.00000       0.00000    
     21225 BUTH     314      BUTH     LPO22    LPD     -0.303000       0.00000          -1   0.00000       0.00000    
     21226 BUTH     315      BUTH     C1       CD33A     2.05990       11.6110           0  -1.81190       1.18670    
     21227 BUTH     315      BUTH     DC1      DRUD     -2.33590      0.400000           0   0.00000       0.00000    
     21228 BUTH     315      BUTH     C2       CD32A     2.02070       11.6110           0  -1.59660       1.16930    
     21229 BUTH     315      BUTH     DC2      DRUD     -2.19270      0.400000           0   0.00000       0.00000    
     21230 BUTH     315      BUTH     C3       CD32A     1.98270       11.6110           0  -1.59660       1.16930    
     21231 BUTH     315      BUTH     DC3      DRUD     -2.19270      0.400000           0   0.00000       0.00000    
     21232 BUTH     315      BUTH     C4       CD2O3A    2.72690       11.6110           0  -1.26130       1.05430    
     21233 BUTH     315      BUTH     DC4      DRUD     -1.94890      0.400000           0   0.00000       0.00000    
     21234 BUTH     315      BUTH     O1       OD2C1A    1.46540       15.5994           0 -0.713100      0.569800    
     21235 BUTH     315      BUTH     DO1      DRUD     -1.46540      0.400000           0   0.00000       0.00000    
     21236 BUTH     315      BUTH     O2       OD31A     1.58240       15.5990           0 -0.831500      0.749400    
     21237 BUTH     315      BUTH     DO2      DRUD     -1.58240      0.400000           0   0.00000       0.00000    
     21238 BUTH     315      BUTH     H1       HDA3A    0.900000E-01   1.00800           0   0.00000       0.00000    
     21239 BUTH     315      BUTH     H2       HDA3A    0.900000E-01   1.00800           0   0.00000       0.00000    
     21240 BUTH     315      BUTH     H3       HDA3A    0.900000E-01   1.00800           0   0.00000       0.00000    
     21241 BUTH     315      BUTH     H4       HDA2A    0.900000E-01   1.00800           0   0.00000       0.00000    
     21242 BUTH     315      BUTH     H5       HDA2A    0.900000E-01   1.00800           0   0.00000       0.00000    
     21243 BUTH     315      BUTH     H6       HDA2A    0.900000E-01   1.00800           0   0.00000       0.00000    
     21244 BUTH     315      BUTH     H7       HDA2A    0.900000E-01   1.00800           0   0.00000       0.00000    
     21245 BUTH     315      BUTH     H8       HDP1A    0.430000       1.00800           0   0.00000       0.00000    
     21246 BUTH     315      BUTH     H9       DUMH      0.00000       1.00800           0   0.00000       0.00000    
     21247 BUTH     315      BUTH     LPO11    LPDO1   -0.287000       0.00000          -1   0.00000       0.00000    
     21248 BUTH     315      BUTH     LPO12    LPDO1   -0.288000       0.00000          -1   0.00000       0.00000    
     21249 BUTH     315      BUTH     LPO21    LPD     -0.302000       0.00000          -1   0.00000       0.00000    
     21250 BUTH     315      BUTH     LPO22    LPD     -0.303000       0.00000          -1   0.00000       0.00000    
     21251 BUTH     316      BUTH     C1       CD33A     2.05990       11.6110           0  -1.81190       1.18670    
     21252 BUTH     316      BUTH     DC1      DRUD     -2.33590      0.400000           0   0.00000       0.00000    
     21253 BUTH     316      BUTH     C2       CD32A     2.02070       11.6110           0  -1.59660       1.16930    
     21254 BUTH     316      BUTH     DC2      DRUD     -2.19270      0.400000           0   0.00000       0.00000    
     21255 BUTH     316      BUTH     C3       CD32A     1.98270       11.6110           0  -1.59660       1.16930    
     21256 BUTH     316      BUTH     DC3      DRUD     -2.19270      0.400000           0   0.00000       0.00000    
     21257 BUTH     316      BUTH     C4       CD2O3A    2.72690       11.6110           0  -1.26130       1.05430    
     21258 BUTH     316      BUTH     DC4      DRUD     -1.94890      0.400000           0   0.00000       0.00000    
     21259 BUTH     316      BUTH     O1       OD2C1A    1.46540       15.5994           0 -0.713100      0.569800    
     21260 BUTH     316      BUTH     DO1      DRUD     -1.46540      0.400000           0   0.00000       0.00000    
     21261 BUTH     316      BUTH     O2       OD31A     1.58240       15.5990           0 -0.831500      0.749400    
     21262 BUTH     316      BUTH     DO2      DRUD     -1.58240      0.400000           0   0.00000       0.00000    
     21263 BUTH     316      BUTH     H1       HDA3A    0.900000E-01   1.00800           0   0.00000       0.00000    
     21264 BUTH     316      BUTH     H2       HDA3A    0.900000E-01   1.00800           0   0.00000       0.00000    
     21265 BUTH     316      BUTH     H3       HDA3A    0.900000E-01   1.00800           0   0.00000       0.00000    
     21266 BUTH     316      BUTH     H4       HDA2A    0.900000E-01   1.00800           0   0.00000       0.00000    
     21267 BUTH     316      BUTH     H5       HDA2A    0.900000E-01   1.00800           0   0.00000       0.00000    
     21268 BUTH     316      BUTH     H6       HDA2A    0.900000E-01   1.00800           0   0.00000       0.00000    
     21269 BUTH     316      BUTH     H7       HDA2A    0.900000E-01   1.00800           0   0.00000       0.00000    
     21270 BUTH     316      BUTH     H8       HDP1A    0.430000       1.00800           0   0.00000       0.00000    
     21271 BUTH     316      BUTH     H9       DUMH      0.00000       1.00800           0   0.00000       0.00000    
     21272 BUTH     316      BUTH     LPO11    LPDO1   -0.287000       0.00000          -1   0.00000       0.00000    
     21273 BUTH     316      BUTH     LPO12    LPDO1   -0.288000       0.00000          -1   0.00000       0.00000    
     21274 BUTH     316      BUTH     LPO21    LPD     -0.302000       0.00000          -1   0.00000       0.00000    
     21275 BUTH     316      BUTH     LPO22    LPD     -0.303000       0.00000          -1   0.00000       0.00000    
     21276 BUTH     317      BUTH     C1       CD33A     2.05990       11.6110           0  -1.81190       1.18670    
     21277 BUTH     317      BUTH     DC1      DRUD     -2.33590      0.400000           0   0.00000       0.00000    
     21278 BUTH     317      BUTH     C2       CD32A     2.02070       11.6110           0  -1.59660       1.16930    
     21279 BUTH     317      BUTH     DC2      DRUD     -2.19270      0.400000           0   0.00000       0.00000    
     21280 BUTH     317      BUTH     C3       CD32A     1.98270       11.6110           0  -1.59660       1.16930    
     21281 BUTH     317      BUTH     DC3      DRUD     -2.19270      0.400000           0   0.00000       0.00000    
     21282 BUTH     317      BUTH     C4       CD2O3A    2.72690       11.6110           0  -1.26130       1.05430    
     21283 BUTH     317      BUTH     DC4      DRUD     -1.94890      0.400000           0   0.00000       0.00000    
     21284 BUTH     317      BUTH     O1       OD2C1A    1.46540       15.5994           0 -0.713100      0.569800    
     21285 BUTH     317      BUTH     DO1      DRUD     -1.46540      0.400000           0   0.00000       0.00000    
     21286 BUTH     317      BUTH     O2       OD31A     1.58240       15.5990           0 -0.831500      0.749400    
     21287 BUTH     317      BUTH     DO2      DRUD     -1.58240      0.400000           0   0.00000       0.00000    
     21288 BUTH     317      BUTH     H1       HDA3A    0.900000E-01   1.00800           0   0.00000       0.00000    
     21289 BUTH     317      BUTH     H2       HDA3A    0.900000E-01   1.00800           0   0.00000       0.00000    
     21290 BUTH     317      BUTH     H3       HDA3A    0.900000E-01   1.00800           0   0.00000       0.00000    
     21291 BUTH     317      BUTH     H4       HDA2A    0.900000E-01   1.00800           0   0.00000       0.00000    
     21292 BUTH     317      BUTH     H5       HDA2A    0.900000E-01   1.00800           0   0.00000       0.00000    
     21293 BUTH     317      BUTH     H6       HDA2A    0.900000E-01   1.00800           0   0.00000       0.00000    
     21294 BUTH     317      BUTH     H7       HDA2A    0.900000E-01   1.00800           0   0.00000       0.00000    
     21295 BUTH     317      BUTH     H8       HDP1A    0.430000       1.00800           0   0.00000       0.00000    
     21296 BUTH     317      BUTH     H9       DUMH      0.00000       1.00800           0   0.00000       0.00000    
     21297 BUTH     317      BUTH     LPO11    LPDO1   -0.287000       0.00000          -1   0.00000       0.00000    
     21298 BUTH     317      BUTH     LPO12    LPDO1   -0.288000       0.00000          -1   0.00000       0.00000    
     21299 BUTH     317      BUTH     LPO21    LPD     -0.302000       0.00000          -1   0.00000       0.00000    
     21300 BUTH     317      BUTH     LPO22    LPD     -0.303000       0.00000          -1   0.00000       0.00000    
     21301 BUTH     318      BUTH     C1       CD33A     2.05990       11.6110           0  -1.81190       1.18670    
     21302 BUTH     318      BUTH     DC1      DRUD     -2.33590      0.400000           0   0.00000       0.00000    
     21303 BUTH     318      BUTH     C2       CD32A     2.02070       11.6110           0  -1.59660       1.16930    
     21304 BUTH     318      BUTH     DC2      DRUD     -2.19270      0.400000           0   0.00000       0.00000    
     21305 BUTH     318      BUTH     C3       CD32A     1.98270       11.6110           0  -1.59660       1.16930    
     21306 BUTH     318      BUTH     DC3      DRUD     -2.19270      0.400000           0   0.00000       0.00000    
     21307 BUTH     318      BUTH     C4       CD2O3A    2.72690       11.6110           0  -1.26130       1.05430    
     21308 BUTH     318      BUTH     DC4      DRUD     -1.94890      0.400000           0   0.00000       0.00000    
     21309 BUTH     318      BUTH     O1       OD2C1A    1.46540       15.5994           0 -0.713100      0.569800    
     21310 BUTH     318      BUTH     DO1      DRUD     -1.46540      0.400000           0   0.00000       0.00000    
     21311 BUTH     318      BUTH     O2       OD31A     1.58240       15.5990           0 -0.831500      0.749400    
     21312 BUTH     318      BUTH     DO2      DRUD     -1.58240      0.400000           0   0.00000       0.00000    
     21313 BUTH     318      BUTH     H1       HDA3A    0.900000E-01   1.00800           0   0.00000       0.00000    
     21314 BUTH     318      BUTH     H2       HDA3A    0.900000E-01   1.00800           0   0.00000       0.00000    
     21315 BUTH     318      BUTH     H3       HDA3A    0.900000E-01   1.00800           0   0.00000       0.00000    
     21316 BUTH     318      BUTH     H4       HDA2A    0.900000E-01   1.00800           0   0.00000       0.00000    
     21317 BUTH     318      BUTH     H5       HDA2A    0.900000E-01   1.00800           0   0.00000       0.00000    
     21318 BUTH     318      BUTH     H6       HDA2A    0.900000E-01   1.00800           0   0.00000       0.00000    
     21319 BUTH     318      BUTH     H7       HDA2A    0.900000E-01   1.00800           0   0.00000       0.00000    
     21320 BUTH     318      BUTH     H8       HDP1A    0.430000       1.00800           0   0.00000       0.00000    
     21321 BUTH     318      BUTH     H9       DUMH      0.00000       1.00800           0   0.00000       0.00000    
     21322 BUTH     318      BUTH     LPO11    LPDO1   -0.287000       0.00000          -1   0.00000       0.00000    
     21323 BUTH     318      BUTH     LPO12    LPDO1   -0.288000       0.00000          -1   0.00000       0.00000    
     21324 BUTH     318      BUTH     LPO21    LPD     -0.302000       0.00000          -1   0.00000       0.00000    
     21325 BUTH     318      BUTH     LPO22    LPD     -0.303000       0.00000          -1   0.00000       0.00000    
     21326 BUTH     319      BUTH     C1       CD33A     2.05990       11.6110           0  -1.81190       1.18670    
     21327 BUTH     319      BUTH     DC1      DRUD     -2.33590      0.400000           0   0.00000       0.00000    
     21328 BUTH     319      BUTH     C2       CD32A     2.02070       11.6110           0  -1.59660       1.16930    
     21329 BUTH     319      BUTH     DC2      DRUD     -2.19270      0.400000           0   0.00000       0.00000    
     21330 BUTH     319      BUTH     C3       CD32A     1.98270       11.6110           0  -1.59660       1.16930    
     21331 BUTH     319      BUTH     DC3      DRUD     -2.19270      0.400000           0   0.00000       0.00000    
     21332 BUTH     319      BUTH     C4       CD2O3A    2.72690       11.6110           0  -1.26130       1.05430    
     21333 BUTH     319      BUTH     DC4      DRUD     -1.94890      0.400000           0   0.00000       0.00000    
     21334 BUTH     319      BUTH     O1       OD2C1A    1.46540       15.5994           0 -0.713100      0.569800    
     21335 BUTH     319      BUTH     DO1      DRUD     -1.46540      0.400000           0   0.00000       0.00000    
     21336 BUTH     319      BUTH     O2       OD31A     1.58240       15.5990           0 -0.831500      0.749400    
     21337 BUTH     319      BUTH     DO2      DRUD     -1.58240      0.400000           0   0.00000       0.00000    
     21338 BUTH     319      BUTH     H1       HDA3A    0.900000E-01   1.00800           0   0.00000       0.00000    
     21339 BUTH     319      BUTH     H2       HDA3A    0.900000E-01   1.00800           0   0.00000       0.00000    
     21340 BUTH     319      BUTH     H3       HDA3A    0.900000E-01   1.00800           0   0.00000       0.00000    
     21341 BUTH     319      BUTH     H4       HDA2A    0.900000E-01   1.00800           0   0.00000       0.00000    
     21342 BUTH     319      BUTH     H5       HDA2A    0.900000E-01   1.00800           0   0.00000       0.00000    
     21343 BUTH     319      BUTH     H6       HDA2A    0.900000E-01   1.00800           0   0.00000       0.00000    
     21344 BUTH     319      BUTH     H7       HDA2A    0.900000E-01   1.00800           0   0.00000       0.00000    
     21345 BUTH     319      BUTH     H8       HDP1A    0.430000       1.00800           0   0.00000       0.00000    
     21346 BUTH     319      BUTH     H9       DUMH      0.00000       1.00800           0   0.00000       0.00000    
     21347 BUTH     319      BUTH     LPO11    LPDO1   -0.287000       0.00000          -1   0.00000       0.00000    
     21348 BUTH     319      BUTH     LPO12    LPDO1   -0.288000       0.00000          -1   0.00000       0.00000    
     21349 BUTH     319      BUTH     LPO21    LPD     -0.302000       0.00000          -1   0.00000       0.00000    
     21350 BUTH     319      BUTH     LPO22    LPD     -0.303000       0.00000          -1   0.00000       0.00000    
     21351 BUTH     320      BUTH     C1       CD33A     2.05990       11.6110           0  -1.81190       1.18670    
     21352 BUTH     320      BUTH     DC1      DRUD     -2.33590      0.400000           0   0.00000       0.00000    
     21353 BUTH     320      BUTH     C2       CD32A     2.02070       11.6110           0  -1.59660       1.16930    
     21354 BUTH     320      BUTH     DC2      DRUD     -2.19270      0.400000           0   0.00000       0.00000    
     21355 BUTH     320      BUTH     C3       CD32A     1.98270       11.6110           0  -1.59660       1.16930    
     21356 BUTH     320      BUTH     DC3      DRUD     -2.19270      0.400000           0   0.00000       0.00000    
     21357 BUTH     320      BUTH     C4       CD2O3A    2.72690       11.6110           0  -1.26130       1.05430    
     21358 BUTH     320      BUTH     DC4      DRUD     -1.94890      0.400000           0   0.00000       0.00000    
     21359 BUTH     320      BUTH     O1       OD2C1A    1.46540       15.5994           0 -0.713100      0.569800    
     21360 BUTH     320      BUTH     DO1      DRUD     -1.46540      0.400000           0   0.00000       0.00000    
     21361 BUTH     320      BUTH     O2       OD31A     1.58240       15.5990           0 -0.831500      0.749400    
     21362 BUTH     320      BUTH     DO2      DRUD     -1.58240      0.400000           0   0.00000       0.00000    
     21363 BUTH     320      BUTH     H1       HDA3A    0.900000E-01   1.00800           0   0.00000       0.00000    
     21364 BUTH     320      BUTH     H2       HDA3A    0.900000E-01   1.00800           0   0.00000       0.00000    
     21365 BUTH     320      BUTH     H3       HDA3A    0.900000E-01   1.00800           0   0.00000       0.00000    
     21366 BUTH     320      BUTH     H4       HDA2A    0.900000E-01   1.00800           0   0.00000       0.00000    
     21367 BUTH     320      BUTH     H5       HDA2A    0.900000E-01   1.00800           0   0.00000       0.00000    
     21368 BUTH     320      BUTH     H6       HDA2A    0.900000E-01   1.00800           0   0.00000       0.00000    
     21369 BUTH     320      BUTH     H7       HDA2A    0.900000E-01   1.00800           0   0.00000       0.00000    
     21370 BUTH     320      BUTH     H8       HDP1A    0.430000       1.00800           0   0.00000       0.00000    
     21371 BUTH     320      BUTH     H9       DUMH      0.00000       1.00800           0   0.00000       0.00000    
     21372 BUTH     320      BUTH     LPO11    LPDO1   -0.287000       0.00000          -1   0.00000       0.00000    
     21373 BUTH     320      BUTH     LPO12    LPDO1   -0.288000       0.00000          -1   0.00000       0.00000    
     21374 BUTH     320      BUTH     LPO21    LPD     -0.302000       0.00000          -1   0.00000       0.00000    
     21375 BUTH     320      BUTH     LPO22    LPD     -0.303000       0.00000          -1   0.00000       0.00000    
     21376 BUTH     321      BUTH     C1       CD33A     2.05990       11.6110           0  -1.81190       1.18670    
     21377 BUTH     321      BUTH     DC1      DRUD     -2.33590      0.400000           0   0.00000       0.00000    
     21378 BUTH     321      BUTH     C2       CD32A     2.02070       11.6110           0  -1.59660       1.16930    
     21379 BUTH     321      BUTH     DC2      DRUD     -2.19270      0.400000           0   0.00000       0.00000    
     21380 BUTH     321      BUTH     C3       CD32A     1.98270       11.6110           0  -1.59660       1.16930    
     21381 BUTH     321      BUTH     DC3      DRUD     -2.19270      0.400000           0   0.00000       0.00000    
     21382 BUTH     321      BUTH     C4       CD2O3A    2.72690       11.6110           0  -1.26130       1.05430    
     21383 BUTH     321      BUTH     DC4      DRUD     -1.94890      0.400000           0   0.00000       0.00000    
     21384 BUTH     321      BUTH     O1       OD2C1A    1.46540       15.5994           0 -0.713100      0.569800    
     21385 BUTH     321      BUTH     DO1      DRUD     -1.46540      0.400000           0   0.00000       0.00000    
     21386 BUTH     321      BUTH     O2       OD31A     1.58240       15.5990           0 -0.831500      0.749400    
     21387 BUTH     321      BUTH     DO2      DRUD     -1.58240      0.400000           0   0.00000       0.00000    
     21388 BUTH     321      BUTH     H1       HDA3A    0.900000E-01   1.00800           0   0.00000       0.00000    
     21389 BUTH     321      BUTH     H2       HDA3A    0.900000E-01   1.00800           0   0.00000       0.00000    
     21390 BUTH     321      BUTH     H3       HDA3A    0.900000E-01   1.00800           0   0.00000       0.00000    
     21391 BUTH     321      BUTH     H4       HDA2A    0.900000E-01   1.00800           0   0.00000       0.00000    
     21392 BUTH     321      BUTH     H5       HDA2A    0.900000E-01   1.00800           0   0.00000       0.00000    
     21393 BUTH     321      BUTH     H6       HDA2A    0.900000E-01   1.00800           0   0.00000       0.00000    
     21394 BUTH     321      BUTH     H7       HDA2A    0.900000E-01   1.00800           0   0.00000       0.00000    
     21395 BUTH     321      BUTH     H8       HDP1A    0.430000       1.00800           0   0.00000       0.00000    
     21396 BUTH     321      BUTH     H9       DUMH      0.00000       1.00800           0   0.00000       0.00000    
     21397 BUTH     321      BUTH     LPO11    LPDO1   -0.287000       0.00000          -1   0.00000       0.00000    
     21398 BUTH     321      BUTH     LPO12    LPDO1   -0.288000       0.00000          -1   0.00000       0.00000    
     21399 BUTH     321      BUTH     LPO21    LPD     -0.302000       0.00000          -1   0.00000       0.00000    
     21400 BUTH     321      BUTH     LPO22    LPD     -0.303000       0.00000          -1   0.00000       0.00000    
     21401 BUTH     322      BUTH     C1       CD33A     2.05990       11.6110           0  -1.81190       1.18670    
     21402 BUTH     322      BUTH     DC1      DRUD     -2.33590      0.400000           0   0.00000       0.00000    
     21403 BUTH     322      BUTH     C2       CD32A     2.02070       11.6110           0  -1.59660       1.16930    
     21404 BUTH     322      BUTH     DC2      DRUD     -2.19270      0.400000           0   0.00000       0.00000    
     21405 BUTH     322      BUTH     C3       CD32A     1.98270       11.6110           0  -1.59660       1.16930    
     21406 BUTH     322      BUTH     DC3      DRUD     -2.19270      0.400000           0   0.00000       0.00000    
     21407 BUTH     322      BUTH     C4       CD2O3A    2.72690       11.6110           0  -1.26130       1.05430    
     21408 BUTH     322      BUTH     DC4      DRUD     -1.94890      0.400000           0   0.00000       0.00000    
     21409 BUTH     322      BUTH     O1       OD2C1A    1.46540       15.5994           0 -0.713100      0.569800    
     21410 BUTH     322      BUTH     DO1      DRUD     -1.46540      0.400000           0   0.00000       0.00000    
     21411 BUTH     322      BUTH     O2       OD31A     1.58240       15.5990           0 -0.831500      0.749400    
     21412 BUTH     322      BUTH     DO2      DRUD     -1.58240      0.400000           0   0.00000       0.00000    
     21413 BUTH     322      BUTH     H1       HDA3A    0.900000E-01   1.00800           0   0.00000       0.00000    
     21414 BUTH     322      BUTH     H2       HDA3A    0.900000E-01   1.00800           0   0.00000       0.00000    
     21415 BUTH     322      BUTH     H3       HDA3A    0.900000E-01   1.00800           0   0.00000       0.00000    
     21416 BUTH     322      BUTH     H4       HDA2A    0.900000E-01   1.00800           0   0.00000       0.00000    
     21417 BUTH     322      BUTH     H5       HDA2A    0.900000E-01   1.00800           0   0.00000       0.00000    
     21418 BUTH     322      BUTH     H6       HDA2A    0.900000E-01   1.00800           0   0.00000       0.00000    
     21419 BUTH     322      BUTH     H7       HDA2A    0.900000E-01   1.00800           0   0.00000       0.00000    
     21420 BUTH     322      BUTH     H8       HDP1A    0.430000       1.00800           0   0.00000       0.00000    
     21421 BUTH     322      BUTH     H9       DUMH      0.00000       1.00800           0   0.00000       0.00000    
     21422 BUTH     322      BUTH     LPO11    LPDO1   -0.287000       0.00000          -1   0.00000       0.00000    
     21423 BUTH     322      BUTH     LPO12    LPDO1   -0.288000       0.00000          -1   0.00000       0.00000    
     21424 BUTH     322      BUTH     LPO21    LPD     -0.302000       0.00000          -1   0.00000       0.00000    
     21425 BUTH     322      BUTH     LPO22    LPD     -0.303000       0.00000          -1   0.00000       0.00000    
     21426 BUTH     323      BUTH     C1       CD33A     2.05990       11.6110           0  -1.81190       1.18670    
     21427 BUTH     323      BUTH     DC1      DRUD     -2.33590      0.400000           0   0.00000       0.00000    
     21428 BUTH     323      BUTH     C2       CD32A     2.02070       11.6110           0  -1.59660       1.16930    
     21429 BUTH     323      BUTH     DC2      DRUD     -2.19270      0.400000           0   0.00000       0.00000    
     21430 BUTH     323      BUTH     C3       CD32A     1.98270       11.6110           0  -1.59660       1.16930    
     21431 BUTH     323      BUTH     DC3      DRUD     -2.19270      0.400000           0   0.00000       0.00000    
     21432 BUTH     323      BUTH     C4       CD2O3A    2.72690       11.6110           0  -1.26130       1.05430    
     21433 BUTH     323      BUTH     DC4      DRUD     -1.94890      0.400000           0   0.00000       0.00000    
     21434 BUTH     323      BUTH     O1       OD2C1A    1.46540       15.5994           0 -0.713100      0.569800    
     21435 BUTH     323      BUTH     DO1      DRUD     -1.46540      0.400000           0   0.00000       0.00000    
     21436 BUTH     323      BUTH     O2       OD31A     1.58240       15.5990           0 -0.831500      0.749400    
     21437 BUTH     323      BUTH     DO2      DRUD     -1.58240      0.400000           0   0.00000       0.00000    
     21438 BUTH     323      BUTH     H1       HDA3A    0.900000E-01   1.00800           0   0.00000       0.00000    
     21439 BUTH     323      BUTH     H2       HDA3A    0.900000E-01   1.00800           0   0.00000       0.00000    
     21440 BUTH     323      BUTH     H3       HDA3A    0.900000E-01   1.00800           0   0.00000       0.00000    
     21441 BUTH     323      BUTH     H4       HDA2A    0.900000E-01   1.00800           0   0.00000       0.00000    
     21442 BUTH     323      BUTH     H5       HDA2A    0.900000E-01   1.00800           0   0.00000       0.00000    
     21443 BUTH     323      BUTH     H6       HDA2A    0.900000E-01   1.00800           0   0.00000       0.00000    
     21444 BUTH     323      BUTH     H7       HDA2A    0.900000E-01   1.00800           0   0.00000       0.00000    
     21445 BUTH     323      BUTH     H8       HDP1A    0.430000       1.00800           0   0.00000       0.00000    
     21446 BUTH     323      BUTH     H9       DUMH      0.00000       1.00800           0   0.00000       0.00000    
     21447 BUTH     323      BUTH     LPO11    LPDO1   -0.287000       0.00000          -1   0.00000       0.00000    
     21448 BUTH     323      BUTH     LPO12    LPDO1   -0.288000       0.00000          -1   0.00000       0.00000    
     21449 BUTH     323      BUTH     LPO21    LPD     -0.302000       0.00000          -1   0.00000       0.00000    
     21450 BUTH     323      BUTH     LPO22    LPD     -0.303000       0.00000          -1   0.00000       0.00000    
     21451 BUTH     324      BUTH     C1       CD33A     2.05990       11.6110           0  -1.81190       1.18670    
     21452 BUTH     324      BUTH     DC1      DRUD     -2.33590      0.400000           0   0.00000       0.00000    
     21453 BUTH     324      BUTH     C2       CD32A     2.02070       11.6110           0  -1.59660       1.16930    
     21454 BUTH     324      BUTH     DC2      DRUD     -2.19270      0.400000           0   0.00000       0.00000    
     21455 BUTH     324      BUTH     C3       CD32A     1.98270       11.6110           0  -1.59660       1.16930    
     21456 BUTH     324      BUTH     DC3      DRUD     -2.19270      0.400000           0   0.00000       0.00000    
     21457 BUTH     324      BUTH     C4       CD2O3A    2.72690       11.6110           0  -1.26130       1.05430    
     21458 BUTH     324      BUTH     DC4      DRUD     -1.94890      0.400000           0   0.00000       0.00000    
     21459 BUTH     324      BUTH     O1       OD2C1A    1.46540       15.5994           0 -0.713100      0.569800    
     21460 BUTH     324      BUTH     DO1      DRUD     -1.46540      0.400000           0   0.00000       0.00000    
     21461 BUTH     324      BUTH     O2       OD31A     1.58240       15.5990           0 -0.831500      0.749400    
     21462 BUTH     324      BUTH     DO2      DRUD     -1.58240      0.400000           0   0.00000       0.00000    
     21463 BUTH     324      BUTH     H1       HDA3A    0.900000E-01   1.00800           0   0.00000       0.00000    
     21464 BUTH     324      BUTH     H2       HDA3A    0.900000E-01   1.00800           0   0.00000       0.00000    
     21465 BUTH     324      BUTH     H3       HDA3A    0.900000E-01   1.00800           0   0.00000       0.00000    
     21466 BUTH     324      BUTH     H4       HDA2A    0.900000E-01   1.00800           0   0.00000       0.00000    
     21467 BUTH     324      BUTH     H5       HDA2A    0.900000E-01   1.00800           0   0.00000       0.00000    
     21468 BUTH     324      BUTH     H6       HDA2A    0.900000E-01   1.00800           0   0.00000       0.00000    
     21469 BUTH     324      BUTH     H7       HDA2A    0.900000E-01   1.00800           0   0.00000       0.00000    
     21470 BUTH     324      BUTH     H8       HDP1A    0.430000       1.00800           0   0.00000       0.00000    
     21471 BUTH     324      BUTH     H9       DUMH      0.00000       1.00800           0   0.00000       0.00000    
     21472 BUTH     324      BUTH     LPO11    LPDO1   -0.287000       0.00000          -1   0.00000       0.00000    
     21473 BUTH     324      BUTH     LPO12    LPDO1   -0.288000       0.00000          -1   0.00000       0.00000    
     21474 BUTH     324      BUTH     LPO21    LPD     -0.302000       0.00000          -1   0.00000       0.00000    
     21475 BUTH     324      BUTH     LPO22    LPD     -0.303000       0.00000          -1   0.00000       0.00000    
     21476 BUTH     325      BUTH     C1       CD33A     2.05990       11.6110           0  -1.81190       1.18670    
     21477 BUTH     325      BUTH     DC1      DRUD     -2.33590      0.400000           0   0.00000       0.00000    
     21478 BUTH     325      BUTH     C2       CD32A     2.02070       11.6110           0  -1.59660       1.16930    
     21479 BUTH     325      BUTH     DC2      DRUD     -2.19270      0.400000           0   0.00000       0.00000    
     21480 BUTH     325      BUTH     C3       CD32A     1.98270       11.6110           0  -1.59660       1.16930    
     21481 BUTH     325      BUTH     DC3      DRUD     -2.19270      0.400000           0   0.00000       0.00000    
     21482 BUTH     325      BUTH     C4       CD2O3A    2.72690       11.6110           0  -1.26130       1.05430    
     21483 BUTH     325      BUTH     DC4      DRUD     -1.94890      0.400000           0   0.00000       0.00000    
     21484 BUTH     325      BUTH     O1       OD2C1A    1.46540       15.5994           0 -0.713100      0.569800    
     21485 BUTH     325      BUTH     DO1      DRUD     -1.46540      0.400000           0   0.00000       0.00000    
     21486 BUTH     325      BUTH     O2       OD31A     1.58240       15.5990           0 -0.831500      0.749400    
     21487 BUTH     325      BUTH     DO2      DRUD     -1.58240      0.400000           0   0.00000       0.00000    
     21488 BUTH     325      BUTH     H1       HDA3A    0.900000E-01   1.00800           0   0.00000       0.00000    
     21489 BUTH     325      BUTH     H2       HDA3A    0.900000E-01   1.00800           0   0.00000       0.00000    
     21490 BUTH     325      BUTH     H3       HDA3A    0.900000E-01   1.00800           0   0.00000       0.00000    
     21491 BUTH     325      BUTH     H4       HDA2A    0.900000E-01   1.00800           0   0.00000       0.00000    
     21492 BUTH     325      BUTH     H5       HDA2A    0.900000E-01   1.00800           0   0.00000       0.00000    
     21493 BUTH     325      BUTH     H6       HDA2A    0.900000E-01   1.00800           0   0.00000       0.00000    
     21494 BUTH     325      BUTH     H7       HDA2A    0.900000E-01   1.00800           0   0.00000       0.00000    
     21495 BUTH     325      BUTH     H8       HDP1A    0.430000       1.00800           0   0.00000       0.00000    
     21496 BUTH     325      BUTH     H9       DUMH      0.00000       1.00800           0   0.00000       0.00000    
     21497 BUTH     325      BUTH     LPO11    LPDO1   -0.287000       0.00000          -1   0.00000       0.00000    
     21498 BUTH     325      BUTH     LPO12    LPDO1   -0.288000       0.00000          -1   0.00000       0.00000    
     21499 BUTH     325      BUTH     LPO21    LPD     -0.302000       0.00000          -1   0.00000       0.00000    
     21500 BUTH     325      BUTH     LPO22    LPD     -0.303000       0.00000          -1   0.00000       0.00000    
     21501 BUTH     326      BUTH     C1       CD33A     2.05990       11.6110           0  -1.81190       1.18670    
     21502 BUTH     326      BUTH     DC1      DRUD     -2.33590      0.400000           0   0.00000       0.00000    
     21503 BUTH     326      BUTH     C2       CD32A     2.02070       11.6110           0  -1.59660       1.16930    
     21504 BUTH     326      BUTH     DC2      DRUD     -2.19270      0.400000           0   0.00000       0.00000    
     21505 BUTH     326      BUTH     C3       CD32A     1.98270       11.6110           0  -1.59660       1.16930    
     21506 BUTH     326      BUTH     DC3      DRUD     -2.19270      0.400000           0   0.00000       0.00000    
     21507 BUTH     326      BUTH     C4       CD2O3A    2.72690       11.6110           0  -1.26130       1.05430    
     21508 BUTH     326      BUTH     DC4      DRUD     -1.94890      0.400000           0   0.00000       0.00000    
     21509 BUTH     326      BUTH     O1       OD2C1A    1.46540       15.5994           0 -0.713100      0.569800    
     21510 BUTH     326      BUTH     DO1      DRUD     -1.46540      0.400000           0   0.00000       0.00000    
     21511 BUTH     326      BUTH     O2       OD31A     1.58240       15.5990           0 -0.831500      0.749400    
     21512 BUTH     326      BUTH     DO2      DRUD     -1.58240      0.400000           0   0.00000       0.00000    
     21513 BUTH     326      BUTH     H1       HDA3A    0.900000E-01   1.00800           0   0.00000       0.00000    
     21514 BUTH     326      BUTH     H2       HDA3A    0.900000E-01   1.00800           0   0.00000       0.00000    
     21515 BUTH     326      BUTH     H3       HDA3A    0.900000E-01   1.00800           0   0.00000       0.00000    
     21516 BUTH     326      BUTH     H4       HDA2A    0.900000E-01   1.00800           0   0.00000       0.00000    
     21517 BUTH     326      BUTH     H5       HDA2A    0.900000E-01   1.00800           0   0.00000       0.00000    
     21518 BUTH     326      BUTH     H6       HDA2A    0.900000E-01   1.00800           0   0.00000       0.00000    
     21519 BUTH     326      BUTH     H7       HDA2A    0.900000E-01   1.00800           0   0.00000       0.00000    
     21520 BUTH     326      BUTH     H8       HDP1A    0.430000       1.00800           0   0.00000       0.00000    
     21521 BUTH     326      BUTH     H9       DUMH      0.00000       1.00800           0   0.00000       0.00000    
     21522 BUTH     326      BUTH     LPO11    LPDO1   -0.287000       0.00000          -1   0.00000       0.00000    
     21523 BUTH     326      BUTH     LPO12    LPDO1   -0.288000       0.00000          -1   0.00000       0.00000    
     21524 BUTH     326      BUTH     LPO21    LPD     -0.302000       0.00000          -1   0.00000       0.00000    
     21525 BUTH     326      BUTH     LPO22    LPD     -0.303000       0.00000          -1   0.00000       0.00000    
     21526 BUTH     327      BUTH     C1       CD33A     2.05990       11.6110           0  -1.81190       1.18670    
     21527 BUTH     327      BUTH     DC1      DRUD     -2.33590      0.400000           0   0.00000       0.00000    
     21528 BUTH     327      BUTH     C2       CD32A     2.02070       11.6110           0  -1.59660       1.16930    
     21529 BUTH     327      BUTH     DC2      DRUD     -2.19270      0.400000           0   0.00000       0.00000    
     21530 BUTH     327      BUTH     C3       CD32A     1.98270       11.6110           0  -1.59660       1.16930    
     21531 BUTH     327      BUTH     DC3      DRUD     -2.19270      0.400000           0   0.00000       0.00000    
     21532 BUTH     327      BUTH     C4       CD2O3A    2.72690       11.6110           0  -1.26130       1.05430    
     21533 BUTH     327      BUTH     DC4      DRUD     -1.94890      0.400000           0   0.00000       0.00000    
     21534 BUTH     327      BUTH     O1       OD2C1A    1.46540       15.5994           0 -0.713100      0.569800    
     21535 BUTH     327      BUTH     DO1      DRUD     -1.46540      0.400000           0   0.00000       0.00000    
     21536 BUTH     327      BUTH     O2       OD31A     1.58240       15.5990           0 -0.831500      0.749400    
     21537 BUTH     327      BUTH     DO2      DRUD     -1.58240      0.400000           0   0.00000       0.00000    
     21538 BUTH     327      BUTH     H1       HDA3A    0.900000E-01   1.00800           0   0.00000       0.00000    
     21539 BUTH     327      BUTH     H2       HDA3A    0.900000E-01   1.00800           0   0.00000       0.00000    
     21540 BUTH     327      BUTH     H3       HDA3A    0.900000E-01   1.00800           0   0.00000       0.00000    
     21541 BUTH     327      BUTH     H4       HDA2A    0.900000E-01   1.00800           0   0.00000       0.00000    
     21542 BUTH     327      BUTH     H5       HDA2A    0.900000E-01   1.00800           0   0.00000       0.00000    
     21543 BUTH     327      BUTH     H6       HDA2A    0.900000E-01   1.00800           0   0.00000       0.00000    
     21544 BUTH     327      BUTH     H7       HDA2A    0.900000E-01   1.00800           0   0.00000       0.00000    
     21545 BUTH     327      BUTH     H8       HDP1A    0.430000       1.00800           0   0.00000       0.00000    
     21546 BUTH     327      BUTH     H9       DUMH      0.00000       1.00800           0   0.00000       0.00000    
     21547 BUTH     327      BUTH     LPO11    LPDO1   -0.287000       0.00000          -1   0.00000       0.00000    
     21548 BUTH     327      BUTH     LPO12    LPDO1   -0.288000       0.00000          -1   0.00000       0.00000    
     21549 BUTH     327      BUTH     LPO21    LPD     -0.302000       0.00000          -1   0.00000       0.00000    
     21550 BUTH     327      BUTH     LPO22    LPD     -0.303000       0.00000          -1   0.00000       0.00000    
     21551 BUTH     328      BUTH     C1       CD33A     2.05990       11.6110           0  -1.81190       1.18670    
     21552 BUTH     328      BUTH     DC1      DRUD     -2.33590      0.400000           0   0.00000       0.00000    
     21553 BUTH     328      BUTH     C2       CD32A     2.02070       11.6110           0  -1.59660       1.16930    
     21554 BUTH     328      BUTH     DC2      DRUD     -2.19270      0.400000           0   0.00000       0.00000    
     21555 BUTH     328      BUTH     C3       CD32A     1.98270       11.6110           0  -1.59660       1.16930    
     21556 BUTH     328      BUTH     DC3      DRUD     -2.19270      0.400000           0   0.00000       0.00000    
     21557 BUTH     328      BUTH     C4       CD2O3A    2.72690       11.6110           0  -1.26130       1.05430    
     21558 BUTH     328      BUTH     DC4      DRUD     -1.94890      0.400000           0   0.00000       0.00000    
     21559 BUTH     328      BUTH     O1       OD2C1A    1.46540       15.5994           0 -0.713100      0.569800    
     21560 BUTH     328      BUTH     DO1      DRUD     -1.46540      0.400000           0   0.00000       0.00000    
     21561 BUTH     328      BUTH     O2       OD31A     1.58240       15.5990           0 -0.831500      0.749400    
     21562 BUTH     328      BUTH     DO2      DRUD     -1.58240      0.400000           0   0.00000       0.00000    
     21563 BUTH     328      BUTH     H1       HDA3A    0.900000E-01   1.00800           0   0.00000       0.00000    
     21564 BUTH     328      BUTH     H2       HDA3A    0.900000E-01   1.00800           0   0.00000       0.00000    
     21565 BUTH     328      BUTH     H3       HDA3A    0.900000E-01   1.00800           0   0.00000       0.00000    
     21566 BUTH     328      BUTH     H4       HDA2A    0.900000E-01   1.00800           0   0.00000       0.00000    
     21567 BUTH     328      BUTH     H5       HDA2A    0.900000E-01   1.00800           0   0.00000       0.00000    
     21568 BUTH     328      BUTH     H6       HDA2A    0.900000E-01   1.00800           0   0.00000       0.00000    
     21569 BUTH     328      BUTH     H7       HDA2A    0.900000E-01   1.00800           0   0.00000       0.00000    
     21570 BUTH     328      BUTH     H8       HDP1A    0.430000       1.00800           0   0.00000       0.00000    
     21571 BUTH     328      BUTH     H9       DUMH      0.00000       1.00800           0   0.00000       0.00000    
     21572 BUTH     328      BUTH     LPO11    LPDO1   -0.287000       0.00000          -1   0.00000       0.00000    
     21573 BUTH     328      BUTH     LPO12    LPDO1   -0.288000       0.00000          -1   0.00000       0.00000    
     21574 BUTH     328      BUTH     LPO21    LPD     -0.302000       0.00000          -1   0.00000       0.00000    
     21575 BUTH     328      BUTH     LPO22    LPD     -0.303000       0.00000          -1   0.00000       0.00000    
     21576 BUTH     329      BUTH     C1       CD33A     2.05990       11.6110           0  -1.81190       1.18670    
     21577 BUTH     329      BUTH     DC1      DRUD     -2.33590      0.400000           0   0.00000       0.00000    
     21578 BUTH     329      BUTH     C2       CD32A     2.02070       11.6110           0  -1.59660       1.16930    
     21579 BUTH     329      BUTH     DC2      DRUD     -2.19270      0.400000           0   0.00000       0.00000    
     21580 BUTH     329      BUTH     C3       CD32A     1.98270       11.6110           0  -1.59660       1.16930    
     21581 BUTH     329      BUTH     DC3      DRUD     -2.19270      0.400000           0   0.00000       0.00000    
     21582 BUTH     329      BUTH     C4       CD2O3A    2.72690       11.6110           0  -1.26130       1.05430    
     21583 BUTH     329      BUTH     DC4      DRUD     -1.94890      0.400000           0   0.00000       0.00000    
     21584 BUTH     329      BUTH     O1       OD2C1A    1.46540       15.5994           0 -0.713100      0.569800    
     21585 BUTH     329      BUTH     DO1      DRUD     -1.46540      0.400000           0   0.00000       0.00000    
     21586 BUTH     329      BUTH     O2       OD31A     1.58240       15.5990           0 -0.831500      0.749400    
     21587 BUTH     329      BUTH     DO2      DRUD     -1.58240      0.400000           0   0.00000       0.00000    
     21588 BUTH     329      BUTH     H1       HDA3A    0.900000E-01   1.00800           0   0.00000       0.00000    
     21589 BUTH     329      BUTH     H2       HDA3A    0.900000E-01   1.00800           0   0.00000       0.00000    
     21590 BUTH     329      BUTH     H3       HDA3A    0.900000E-01   1.00800           0   0.00000       0.00000    
     21591 BUTH     329      BUTH     H4       HDA2A    0.900000E-01   1.00800           0   0.00000       0.00000    
     21592 BUTH     329      BUTH     H5       HDA2A    0.900000E-01   1.00800           0   0.00000       0.00000    
     21593 BUTH     329      BUTH     H6       HDA2A    0.900000E-01   1.00800           0   0.00000       0.00000    
     21594 BUTH     329      BUTH     H7       HDA2A    0.900000E-01   1.00800           0   0.00000       0.00000    
     21595 BUTH     329      BUTH     H8       HDP1A    0.430000       1.00800           0   0.00000       0.00000    
     21596 BUTH     329      BUTH     H9       DUMH      0.00000       1.00800           0   0.00000       0.00000    
     21597 BUTH     329      BUTH     LPO11    LPDO1   -0.287000       0.00000          -1   0.00000       0.00000    
     21598 BUTH     329      BUTH     LPO12    LPDO1   -0.288000       0.00000          -1   0.00000       0.00000    
     21599 BUTH     329      BUTH     LPO21    LPD     -0.302000       0.00000          -1   0.00000       0.00000    
     21600 BUTH     329      BUTH     LPO22    LPD     -0.303000       0.00000          -1   0.00000       0.00000    
     21601 BUTH     330      BUTH     C1       CD33A     2.05990       11.6110           0  -1.81190       1.18670    
     21602 BUTH     330      BUTH     DC1      DRUD     -2.33590      0.400000           0   0.00000       0.00000    
     21603 BUTH     330      BUTH     C2       CD32A     2.02070       11.6110           0  -1.59660       1.16930    
     21604 BUTH     330      BUTH     DC2      DRUD     -2.19270      0.400000           0   0.00000       0.00000    
     21605 BUTH     330      BUTH     C3       CD32A     1.98270       11.6110           0  -1.59660       1.16930    
     21606 BUTH     330      BUTH     DC3      DRUD     -2.19270      0.400000           0   0.00000       0.00000    
     21607 BUTH     330      BUTH     C4       CD2O3A    2.72690       11.6110           0  -1.26130       1.05430    
     21608 BUTH     330      BUTH     DC4      DRUD     -1.94890      0.400000           0   0.00000       0.00000    
     21609 BUTH     330      BUTH     O1       OD2C1A    1.46540       15.5994           0 -0.713100      0.569800    
     21610 BUTH     330      BUTH     DO1      DRUD     -1.46540      0.400000           0   0.00000       0.00000    
     21611 BUTH     330      BUTH     O2       OD31A     1.58240       15.5990           0 -0.831500      0.749400    
     21612 BUTH     330      BUTH     DO2      DRUD     -1.58240      0.400000           0   0.00000       0.00000    
     21613 BUTH     330      BUTH     H1       HDA3A    0.900000E-01   1.00800           0   0.00000       0.00000    
     21614 BUTH     330      BUTH     H2       HDA3A    0.900000E-01   1.00800           0   0.00000       0.00000    
     21615 BUTH     330      BUTH     H3       HDA3A    0.900000E-01   1.00800           0   0.00000       0.00000    
     21616 BUTH     330      BUTH     H4       HDA2A    0.900000E-01   1.00800           0   0.00000       0.00000    
     21617 BUTH     330      BUTH     H5       HDA2A    0.900000E-01   1.00800           0   0.00000       0.00000    
     21618 BUTH     330      BUTH     H6       HDA2A    0.900000E-01   1.00800           0   0.00000       0.00000    
     21619 BUTH     330      BUTH     H7       HDA2A    0.900000E-01   1.00800           0   0.00000       0.00000    
     21620 BUTH     330      BUTH     H8       HDP1A    0.430000       1.00800           0   0.00000       0.00000    
     21621 BUTH     330      BUTH     H9       DUMH      0.00000       1.00800           0   0.00000       0.00000    
     21622 BUTH     330      BUTH     LPO11    LPDO1   -0.287000       0.00000          -1   0.00000       0.00000    
     21623 BUTH     330      BUTH     LPO12    LPDO1   -0.288000       0.00000          -1   0.00000       0.00000    
     21624 BUTH     330      BUTH     LPO21    LPD     -0.302000       0.00000          -1   0.00000       0.00000    
     21625 BUTH     330      BUTH     LPO22    LPD     -0.303000       0.00000          -1   0.00000       0.00000    
     21626 BUTH     331      BUTH     C1       CD33A     2.05990       11.6110           0  -1.81190       1.18670    
     21627 BUTH     331      BUTH     DC1      DRUD     -2.33590      0.400000           0   0.00000       0.00000    
     21628 BUTH     331      BUTH     C2       CD32A     2.02070       11.6110           0  -1.59660       1.16930    
     21629 BUTH     331      BUTH     DC2      DRUD     -2.19270      0.400000           0   0.00000       0.00000    
     21630 BUTH     331      BUTH     C3       CD32A     1.98270       11.6110           0  -1.59660       1.16930    
     21631 BUTH     331      BUTH     DC3      DRUD     -2.19270      0.400000           0   0.00000       0.00000    
     21632 BUTH     331      BUTH     C4       CD2O3A    2.72690       11.6110           0  -1.26130       1.05430    
     21633 BUTH     331      BUTH     DC4      DRUD     -1.94890      0.400000           0   0.00000       0.00000    
     21634 BUTH     331      BUTH     O1       OD2C1A    1.46540       15.5994           0 -0.713100      0.569800    
     21635 BUTH     331      BUTH     DO1      DRUD     -1.46540      0.400000           0   0.00000       0.00000    
     21636 BUTH     331      BUTH     O2       OD31A     1.58240       15.5990           0 -0.831500      0.749400    
     21637 BUTH     331      BUTH     DO2      DRUD     -1.58240      0.400000           0   0.00000       0.00000    
     21638 BUTH     331      BUTH     H1       HDA3A    0.900000E-01   1.00800           0   0.00000       0.00000    
     21639 BUTH     331      BUTH     H2       HDA3A    0.900000E-01   1.00800           0   0.00000       0.00000    
     21640 BUTH     331      BUTH     H3       HDA3A    0.900000E-01   1.00800           0   0.00000       0.00000    
     21641 BUTH     331      BUTH     H4       HDA2A    0.900000E-01   1.00800           0   0.00000       0.00000    
     21642 BUTH     331      BUTH     H5       HDA2A    0.900000E-01   1.00800           0   0.00000       0.00000    
     21643 BUTH     331      BUTH     H6       HDA2A    0.900000E-01   1.00800           0   0.00000       0.00000    
     21644 BUTH     331      BUTH     H7       HDA2A    0.900000E-01   1.00800           0   0.00000       0.00000    
     21645 BUTH     331      BUTH     H8       HDP1A    0.430000       1.00800           0   0.00000       0.00000    
     21646 BUTH     331      BUTH     H9       DUMH      0.00000       1.00800           0   0.00000       0.00000    
     21647 BUTH     331      BUTH     LPO11    LPDO1   -0.287000       0.00000          -1   0.00000       0.00000    
     21648 BUTH     331      BUTH     LPO12    LPDO1   -0.288000       0.00000          -1   0.00000       0.00000    
     21649 BUTH     331      BUTH     LPO21    LPD     -0.302000       0.00000          -1   0.00000       0.00000    
     21650 BUTH     331      BUTH     LPO22    LPD     -0.303000       0.00000          -1   0.00000       0.00000    
     21651 BUTH     332      BUTH     C1       CD33A     2.05990       11.6110           0  -1.81190       1.18670    
     21652 BUTH     332      BUTH     DC1      DRUD     -2.33590      0.400000           0   0.00000       0.00000    
     21653 BUTH     332      BUTH     C2       CD32A     2.02070       11.6110           0  -1.59660       1.16930    
     21654 BUTH     332      BUTH     DC2      DRUD     -2.19270      0.400000           0   0.00000       0.00000    
     21655 BUTH     332      BUTH     C3       CD32A     1.98270       11.6110           0  -1.59660       1.16930    
     21656 BUTH     332      BUTH     DC3      DRUD     -2.19270      0.400000           0   0.00000       0.00000    
     21657 BUTH     332      BUTH     C4       CD2O3A    2.72690       11.6110           0  -1.26130       1.05430    
     21658 BUTH     332      BUTH     DC4      DRUD     -1.94890      0.400000           0   0.00000       0.00000    
     21659 BUTH     332      BUTH     O1       OD2C1A    1.46540       15.5994           0 -0.713100      0.569800    
     21660 BUTH     332      BUTH     DO1      DRUD     -1.46540      0.400000           0   0.00000       0.00000    
     21661 BUTH     332      BUTH     O2       OD31A     1.58240       15.5990           0 -0.831500      0.749400    
     21662 BUTH     332      BUTH     DO2      DRUD     -1.58240      0.400000           0   0.00000       0.00000    
     21663 BUTH     332      BUTH     H1       HDA3A    0.900000E-01   1.00800           0   0.00000       0.00000    
     21664 BUTH     332      BUTH     H2       HDA3A    0.900000E-01   1.00800           0   0.00000       0.00000    
     21665 BUTH     332      BUTH     H3       HDA3A    0.900000E-01   1.00800           0   0.00000       0.00000    
     21666 BUTH     332      BUTH     H4       HDA2A    0.900000E-01   1.00800           0   0.00000       0.00000    
     21667 BUTH     332      BUTH     H5       HDA2A    0.900000E-01   1.00800           0   0.00000       0.00000    
     21668 BUTH     332      BUTH     H6       HDA2A    0.900000E-01   1.00800           0   0.00000       0.00000    
     21669 BUTH     332      BUTH     H7       HDA2A    0.900000E-01   1.00800           0   0.00000       0.00000    
     21670 BUTH     332      BUTH     H8       HDP1A    0.430000       1.00800           0   0.00000       0.00000    
     21671 BUTH     332      BUTH     H9       DUMH      0.00000       1.00800           0   0.00000       0.00000    
     21672 BUTH     332      BUTH     LPO11    LPDO1   -0.287000       0.00000          -1   0.00000       0.00000    
     21673 BUTH     332      BUTH     LPO12    LPDO1   -0.288000       0.00000          -1   0.00000       0.00000    
     21674 BUTH     332      BUTH     LPO21    LPD     -0.302000       0.00000          -1   0.00000       0.00000    
     21675 BUTH     332      BUTH     LPO22    LPD     -0.303000       0.00000          -1   0.00000       0.00000    
     21676 BUTH     333      BUTH     C1       CD33A     2.05990       11.6110           0  -1.81190       1.18670    
     21677 BUTH     333      BUTH     DC1      DRUD     -2.33590      0.400000           0   0.00000       0.00000    
     21678 BUTH     333      BUTH     C2       CD32A     2.02070       11.6110           0  -1.59660       1.16930    
     21679 BUTH     333      BUTH     DC2      DRUD     -2.19270      0.400000           0   0.00000       0.00000    
     21680 BUTH     333      BUTH     C3       CD32A     1.98270       11.6110           0  -1.59660       1.16930    
     21681 BUTH     333      BUTH     DC3      DRUD     -2.19270      0.400000           0   0.00000       0.00000    
     21682 BUTH     333      BUTH     C4       CD2O3A    2.72690       11.6110           0  -1.26130       1.05430    
     21683 BUTH     333      BUTH     DC4      DRUD     -1.94890      0.400000           0   0.00000       0.00000    
     21684 BUTH     333      BUTH     O1       OD2C1A    1.46540       15.5994           0 -0.713100      0.569800    
     21685 BUTH     333      BUTH     DO1      DRUD     -1.46540      0.400000           0   0.00000       0.00000    
     21686 BUTH     333      BUTH     O2       OD31A     1.58240       15.5990           0 -0.831500      0.749400    
     21687 BUTH     333      BUTH     DO2      DRUD     -1.58240      0.400000           0   0.00000       0.00000    
     21688 BUTH     333      BUTH     H1       HDA3A    0.900000E-01   1.00800           0   0.00000       0.00000    
     21689 BUTH     333      BUTH     H2       HDA3A    0.900000E-01   1.00800           0   0.00000       0.00000    
     21690 BUTH     333      BUTH     H3       HDA3A    0.900000E-01   1.00800           0   0.00000       0.00000    
     21691 BUTH     333      BUTH     H4       HDA2A    0.900000E-01   1.00800           0   0.00000       0.00000    
     21692 BUTH     333      BUTH     H5       HDA2A    0.900000E-01   1.00800           0   0.00000       0.00000    
     21693 BUTH     333      BUTH     H6       HDA2A    0.900000E-01   1.00800           0   0.00000       0.00000    
     21694 BUTH     333      BUTH     H7       HDA2A    0.900000E-01   1.00800           0   0.00000       0.00000    
     21695 BUTH     333      BUTH     H8       HDP1A    0.430000       1.00800           0   0.00000       0.00000    
     21696 BUTH     333      BUTH     H9       DUMH      0.00000       1.00800           0   0.00000       0.00000    
     21697 BUTH     333      BUTH     LPO11    LPDO1   -0.287000       0.00000          -1   0.00000       0.00000    
     21698 BUTH     333      BUTH     LPO12    LPDO1   -0.288000       0.00000          -1   0.00000       0.00000    
     21699 BUTH     333      BUTH     LPO21    LPD     -0.302000       0.00000          -1   0.00000       0.00000    
     21700 BUTH     333      BUTH     LPO22    LPD     -0.303000       0.00000          -1   0.00000       0.00000    
     21701 BUTH     334      BUTH     C1       CD33A     2.05990       11.6110           0  -1.81190       1.18670    
     21702 BUTH     334      BUTH     DC1      DRUD     -2.33590      0.400000           0   0.00000       0.00000    
     21703 BUTH     334      BUTH     C2       CD32A     2.02070       11.6110           0  -1.59660       1.16930    
     21704 BUTH     334      BUTH     DC2      DRUD     -2.19270      0.400000           0   0.00000       0.00000    
     21705 BUTH     334      BUTH     C3       CD32A     1.98270       11.6110           0  -1.59660       1.16930    
     21706 BUTH     334      BUTH     DC3      DRUD     -2.19270      0.400000           0   0.00000       0.00000    
     21707 BUTH     334      BUTH     C4       CD2O3A    2.72690       11.6110           0  -1.26130       1.05430    
     21708 BUTH     334      BUTH     DC4      DRUD     -1.94890      0.400000           0   0.00000       0.00000    
     21709 BUTH     334      BUTH     O1       OD2C1A    1.46540       15.5994           0 -0.713100      0.569800    
     21710 BUTH     334      BUTH     DO1      DRUD     -1.46540      0.400000           0   0.00000       0.00000    
     21711 BUTH     334      BUTH     O2       OD31A     1.58240       15.5990           0 -0.831500      0.749400    
     21712 BUTH     334      BUTH     DO2      DRUD     -1.58240      0.400000           0   0.00000       0.00000    
     21713 BUTH     334      BUTH     H1       HDA3A    0.900000E-01   1.00800           0   0.00000       0.00000    
     21714 BUTH     334      BUTH     H2       HDA3A    0.900000E-01   1.00800           0   0.00000       0.00000    
     21715 BUTH     334      BUTH     H3       HDA3A    0.900000E-01   1.00800           0   0.00000       0.00000    
     21716 BUTH     334      BUTH     H4       HDA2A    0.900000E-01   1.00800           0   0.00000       0.00000    
     21717 BUTH     334      BUTH     H5       HDA2A    0.900000E-01   1.00800           0   0.00000       0.00000    
     21718 BUTH     334      BUTH     H6       HDA2A    0.900000E-01   1.00800           0   0.00000       0.00000    
     21719 BUTH     334      BUTH     H7       HDA2A    0.900000E-01   1.00800           0   0.00000       0.00000    
     21720 BUTH     334      BUTH     H8       HDP1A    0.430000       1.00800           0   0.00000       0.00000    
     21721 BUTH     334      BUTH     H9       DUMH      0.00000       1.00800           0   0.00000       0.00000    
     21722 BUTH     334      BUTH     LPO11    LPDO1   -0.287000       0.00000          -1   0.00000       0.00000    
     21723 BUTH     334      BUTH     LPO12    LPDO1   -0.288000       0.00000          -1   0.00000       0.00000    
     21724 BUTH     334      BUTH     LPO21    LPD     -0.302000       0.00000          -1   0.00000       0.00000    
     21725 BUTH     334      BUTH     LPO22    LPD     -0.303000       0.00000          -1   0.00000       0.00000    
     21726 BUTH     335      BUTH     C1       CD33A     2.05990       11.6110           0  -1.81190       1.18670    
     21727 BUTH     335      BUTH     DC1      DRUD     -2.33590      0.400000           0   0.00000       0.00000    
     21728 BUTH     335      BUTH     C2       CD32A     2.02070       11.6110           0  -1.59660       1.16930    
     21729 BUTH     335      BUTH     DC2      DRUD     -2.19270      0.400000           0   0.00000       0.00000    
     21730 BUTH     335      BUTH     C3       CD32A     1.98270       11.6110           0  -1.59660       1.16930    
     21731 BUTH     335      BUTH     DC3      DRUD     -2.19270      0.400000           0   0.00000       0.00000    
     21732 BUTH     335      BUTH     C4       CD2O3A    2.72690       11.6110           0  -1.26130       1.05430    
     21733 BUTH     335      BUTH     DC4      DRUD     -1.94890      0.400000           0   0.00000       0.00000    
     21734 BUTH     335      BUTH     O1       OD2C1A    1.46540       15.5994           0 -0.713100      0.569800    
     21735 BUTH     335      BUTH     DO1      DRUD     -1.46540      0.400000           0   0.00000       0.00000    
     21736 BUTH     335      BUTH     O2       OD31A     1.58240       15.5990           0 -0.831500      0.749400    
     21737 BUTH     335      BUTH     DO2      DRUD     -1.58240      0.400000           0   0.00000       0.00000    
     21738 BUTH     335      BUTH     H1       HDA3A    0.900000E-01   1.00800           0   0.00000       0.00000    
     21739 BUTH     335      BUTH     H2       HDA3A    0.900000E-01   1.00800           0   0.00000       0.00000    
     21740 BUTH     335      BUTH     H3       HDA3A    0.900000E-01   1.00800           0   0.00000       0.00000    
     21741 BUTH     335      BUTH     H4       HDA2A    0.900000E-01   1.00800           0   0.00000       0.00000    
     21742 BUTH     335      BUTH     H5       HDA2A    0.900000E-01   1.00800           0   0.00000       0.00000    
     21743 BUTH     335      BUTH     H6       HDA2A    0.900000E-01   1.00800           0   0.00000       0.00000    
     21744 BUTH     335      BUTH     H7       HDA2A    0.900000E-01   1.00800           0   0.00000       0.00000    
     21745 BUTH     335      BUTH     H8       HDP1A    0.430000       1.00800           0   0.00000       0.00000    
     21746 BUTH     335      BUTH     H9       DUMH      0.00000       1.00800           0   0.00000       0.00000    
     21747 BUTH     335      BUTH     LPO11    LPDO1   -0.287000       0.00000          -1   0.00000       0.00000    
     21748 BUTH     335      BUTH     LPO12    LPDO1   -0.288000       0.00000          -1   0.00000       0.00000    
     21749 BUTH     335      BUTH     LPO21    LPD     -0.302000       0.00000          -1   0.00000       0.00000    
     21750 BUTH     335      BUTH     LPO22    LPD     -0.303000       0.00000          -1   0.00000       0.00000    
     21751 BUTH     336      BUTH     C1       CD33A     2.05990       11.6110           0  -1.81190       1.18670    
     21752 BUTH     336      BUTH     DC1      DRUD     -2.33590      0.400000           0   0.00000       0.00000    
     21753 BUTH     336      BUTH     C2       CD32A     2.02070       11.6110           0  -1.59660       1.16930    
     21754 BUTH     336      BUTH     DC2      DRUD     -2.19270      0.400000           0   0.00000       0.00000    
     21755 BUTH     336      BUTH     C3       CD32A     1.98270       11.6110           0  -1.59660       1.16930    
     21756 BUTH     336      BUTH     DC3      DRUD     -2.19270      0.400000           0   0.00000       0.00000    
     21757 BUTH     336      BUTH     C4       CD2O3A    2.72690       11.6110           0  -1.26130       1.05430    
     21758 BUTH     336      BUTH     DC4      DRUD     -1.94890      0.400000           0   0.00000       0.00000    
     21759 BUTH     336      BUTH     O1       OD2C1A    1.46540       15.5994           0 -0.713100      0.569800    
     21760 BUTH     336      BUTH     DO1      DRUD     -1.46540      0.400000           0   0.00000       0.00000    
     21761 BUTH     336      BUTH     O2       OD31A     1.58240       15.5990           0 -0.831500      0.749400    
     21762 BUTH     336      BUTH     DO2      DRUD     -1.58240      0.400000           0   0.00000       0.00000    
     21763 BUTH     336      BUTH     H1       HDA3A    0.900000E-01   1.00800           0   0.00000       0.00000    
     21764 BUTH     336      BUTH     H2       HDA3A    0.900000E-01   1.00800           0   0.00000       0.00000    
     21765 BUTH     336      BUTH     H3       HDA3A    0.900000E-01   1.00800           0   0.00000       0.00000    
     21766 BUTH     336      BUTH     H4       HDA2A    0.900000E-01   1.00800           0   0.00000       0.00000    
     21767 BUTH     336      BUTH     H5       HDA2A    0.900000E-01   1.00800           0   0.00000       0.00000    
     21768 BUTH     336      BUTH     H6       HDA2A    0.900000E-01   1.00800           0   0.00000       0.00000    
     21769 BUTH     336      BUTH     H7       HDA2A    0.900000E-01   1.00800           0   0.00000       0.00000    
     21770 BUTH     336      BUTH     H8       HDP1A    0.430000       1.00800           0   0.00000       0.00000    
     21771 BUTH     336      BUTH     H9       DUMH      0.00000       1.00800           0   0.00000       0.00000    
     21772 BUTH     336      BUTH     LPO11    LPDO1   -0.287000       0.00000          -1   0.00000       0.00000    
     21773 BUTH     336      BUTH     LPO12    LPDO1   -0.288000       0.00000          -1   0.00000       0.00000    
     21774 BUTH     336      BUTH     LPO21    LPD     -0.302000       0.00000          -1   0.00000       0.00000    
     21775 BUTH     336      BUTH     LPO22    LPD     -0.303000       0.00000          -1   0.00000       0.00000    
     21776 BUTH     337      BUTH     C1       CD33A     2.05990       11.6110           0  -1.81190       1.18670    
     21777 BUTH     337      BUTH     DC1      DRUD     -2.33590      0.400000           0   0.00000       0.00000    
     21778 BUTH     337      BUTH     C2       CD32A     2.02070       11.6110           0  -1.59660       1.16930    
     21779 BUTH     337      BUTH     DC2      DRUD     -2.19270      0.400000           0   0.00000       0.00000    
     21780 BUTH     337      BUTH     C3       CD32A     1.98270       11.6110           0  -1.59660       1.16930    
     21781 BUTH     337      BUTH     DC3      DRUD     -2.19270      0.400000           0   0.00000       0.00000    
     21782 BUTH     337      BUTH     C4       CD2O3A    2.72690       11.6110           0  -1.26130       1.05430    
     21783 BUTH     337      BUTH     DC4      DRUD     -1.94890      0.400000           0   0.00000       0.00000    
     21784 BUTH     337      BUTH     O1       OD2C1A    1.46540       15.5994           0 -0.713100      0.569800    
     21785 BUTH     337      BUTH     DO1      DRUD     -1.46540      0.400000           0   0.00000       0.00000    
     21786 BUTH     337      BUTH     O2       OD31A     1.58240       15.5990           0 -0.831500      0.749400    
     21787 BUTH     337      BUTH     DO2      DRUD     -1.58240      0.400000           0   0.00000       0.00000    
     21788 BUTH     337      BUTH     H1       HDA3A    0.900000E-01   1.00800           0   0.00000       0.00000    
     21789 BUTH     337      BUTH     H2       HDA3A    0.900000E-01   1.00800           0   0.00000       0.00000    
     21790 BUTH     337      BUTH     H3       HDA3A    0.900000E-01   1.00800           0   0.00000       0.00000    
     21791 BUTH     337      BUTH     H4       HDA2A    0.900000E-01   1.00800           0   0.00000       0.00000    
     21792 BUTH     337      BUTH     H5       HDA2A    0.900000E-01   1.00800           0   0.00000       0.00000    
     21793 BUTH     337      BUTH     H6       HDA2A    0.900000E-01   1.00800           0   0.00000       0.00000    
     21794 BUTH     337      BUTH     H7       HDA2A    0.900000E-01   1.00800           0   0.00000       0.00000    
     21795 BUTH     337      BUTH     H8       HDP1A    0.430000       1.00800           0   0.00000       0.00000    
     21796 BUTH     337      BUTH     H9       DUMH      0.00000       1.00800           0   0.00000       0.00000    
     21797 BUTH     337      BUTH     LPO11    LPDO1   -0.287000       0.00000          -1   0.00000       0.00000    
     21798 BUTH     337      BUTH     LPO12    LPDO1   -0.288000       0.00000          -1   0.00000       0.00000    
     21799 BUTH     337      BUTH     LPO21    LPD     -0.302000       0.00000          -1   0.00000       0.00000    
     21800 BUTH     337      BUTH     LPO22    LPD     -0.303000       0.00000          -1   0.00000       0.00000    
     21801 BUTH     338      BUTH     C1       CD33A     2.05990       11.6110           0  -1.81190       1.18670    
     21802 BUTH     338      BUTH     DC1      DRUD     -2.33590      0.400000           0   0.00000       0.00000    
     21803 BUTH     338      BUTH     C2       CD32A     2.02070       11.6110           0  -1.59660       1.16930    
     21804 BUTH     338      BUTH     DC2      DRUD     -2.19270      0.400000           0   0.00000       0.00000    
     21805 BUTH     338      BUTH     C3       CD32A     1.98270       11.6110           0  -1.59660       1.16930    
     21806 BUTH     338      BUTH     DC3      DRUD     -2.19270      0.400000           0   0.00000       0.00000    
     21807 BUTH     338      BUTH     C4       CD2O3A    2.72690       11.6110           0  -1.26130       1.05430    
     21808 BUTH     338      BUTH     DC4      DRUD     -1.94890      0.400000           0   0.00000       0.00000    
     21809 BUTH     338      BUTH     O1       OD2C1A    1.46540       15.5994           0 -0.713100      0.569800    
     21810 BUTH     338      BUTH     DO1      DRUD     -1.46540      0.400000           0   0.00000       0.00000    
     21811 BUTH     338      BUTH     O2       OD31A     1.58240       15.5990           0 -0.831500      0.749400    
     21812 BUTH     338      BUTH     DO2      DRUD     -1.58240      0.400000           0   0.00000       0.00000    
     21813 BUTH     338      BUTH     H1       HDA3A    0.900000E-01   1.00800           0   0.00000       0.00000    
     21814 BUTH     338      BUTH     H2       HDA3A    0.900000E-01   1.00800           0   0.00000       0.00000    
     21815 BUTH     338      BUTH     H3       HDA3A    0.900000E-01   1.00800           0   0.00000       0.00000    
     21816 BUTH     338      BUTH     H4       HDA2A    0.900000E-01   1.00800           0   0.00000       0.00000    
     21817 BUTH     338      BUTH     H5       HDA2A    0.900000E-01   1.00800           0   0.00000       0.00000    
     21818 BUTH     338      BUTH     H6       HDA2A    0.900000E-01   1.00800           0   0.00000       0.00000    
     21819 BUTH     338      BUTH     H7       HDA2A    0.900000E-01   1.00800           0   0.00000       0.00000    
     21820 BUTH     338      BUTH     H8       HDP1A    0.430000       1.00800           0   0.00000       0.00000    
     21821 BUTH     338      BUTH     H9       DUMH      0.00000       1.00800           0   0.00000       0.00000    
     21822 BUTH     338      BUTH     LPO11    LPDO1   -0.287000       0.00000          -1   0.00000       0.00000    
     21823 BUTH     338      BUTH     LPO12    LPDO1   -0.288000       0.00000          -1   0.00000       0.00000    
     21824 BUTH     338      BUTH     LPO21    LPD     -0.302000       0.00000          -1   0.00000       0.00000    
     21825 BUTH     338      BUTH     LPO22    LPD     -0.303000       0.00000          -1   0.00000       0.00000    
     21826 BUTH     339      BUTH     C1       CD33A     2.05990       11.6110           0  -1.81190       1.18670    
     21827 BUTH     339      BUTH     DC1      DRUD     -2.33590      0.400000           0   0.00000       0.00000    
     21828 BUTH     339      BUTH     C2       CD32A     2.02070       11.6110           0  -1.59660       1.16930    
     21829 BUTH     339      BUTH     DC2      DRUD     -2.19270      0.400000           0   0.00000       0.00000    
     21830 BUTH     339      BUTH     C3       CD32A     1.98270       11.6110           0  -1.59660       1.16930    
     21831 BUTH     339      BUTH     DC3      DRUD     -2.19270      0.400000           0   0.00000       0.00000    
     21832 BUTH     339      BUTH     C4       CD2O3A    2.72690       11.6110           0  -1.26130       1.05430    
     21833 BUTH     339      BUTH     DC4      DRUD     -1.94890      0.400000           0   0.00000       0.00000    
     21834 BUTH     339      BUTH     O1       OD2C1A    1.46540       15.5994           0 -0.713100      0.569800    
     21835 BUTH     339      BUTH     DO1      DRUD     -1.46540      0.400000           0   0.00000       0.00000    
     21836 BUTH     339      BUTH     O2       OD31A     1.58240       15.5990           0 -0.831500      0.749400    
     21837 BUTH     339      BUTH     DO2      DRUD     -1.58240      0.400000           0   0.00000       0.00000    
     21838 BUTH     339      BUTH     H1       HDA3A    0.900000E-01   1.00800           0   0.00000       0.00000    
     21839 BUTH     339      BUTH     H2       HDA3A    0.900000E-01   1.00800           0   0.00000       0.00000    
     21840 BUTH     339      BUTH     H3       HDA3A    0.900000E-01   1.00800           0   0.00000       0.00000    
     21841 BUTH     339      BUTH     H4       HDA2A    0.900000E-01   1.00800           0   0.00000       0.00000    
     21842 BUTH     339      BUTH     H5       HDA2A    0.900000E-01   1.00800           0   0.00000       0.00000    
     21843 BUTH     339      BUTH     H6       HDA2A    0.900000E-01   1.00800           0   0.00000       0.00000    
     21844 BUTH     339      BUTH     H7       HDA2A    0.900000E-01   1.00800           0   0.00000       0.00000    
     21845 BUTH     339      BUTH     H8       HDP1A    0.430000       1.00800           0   0.00000       0.00000    
     21846 BUTH     339      BUTH     H9       DUMH      0.00000       1.00800           0   0.00000       0.00000    
     21847 BUTH     339      BUTH     LPO11    LPDO1   -0.287000       0.00000          -1   0.00000       0.00000    
     21848 BUTH     339      BUTH     LPO12    LPDO1   -0.288000       0.00000          -1   0.00000       0.00000    
     21849 BUTH     339      BUTH     LPO21    LPD     -0.302000       0.00000          -1   0.00000       0.00000    
     21850 BUTH     339      BUTH     LPO22    LPD     -0.303000       0.00000          -1   0.00000       0.00000    
     21851 BUTH     340      BUTH     C1       CD33A     2.05990       11.6110           0  -1.81190       1.18670    
     21852 BUTH     340      BUTH     DC1      DRUD     -2.33590      0.400000           0   0.00000       0.00000    
     21853 BUTH     340      BUTH     C2       CD32A     2.02070       11.6110           0  -1.59660       1.16930    
     21854 BUTH     340      BUTH     DC2      DRUD     -2.19270      0.400000           0   0.00000       0.00000    
     21855 BUTH     340      BUTH     C3       CD32A     1.98270       11.6110           0  -1.59660       1.16930    
     21856 BUTH     340      BUTH     DC3      DRUD     -2.19270      0.400000           0   0.00000       0.00000    
     21857 BUTH     340      BUTH     C4       CD2O3A    2.72690       11.6110           0  -1.26130       1.05430    
     21858 BUTH     340      BUTH     DC4      DRUD     -1.94890      0.400000           0   0.00000       0.00000    
     21859 BUTH     340      BUTH     O1       OD2C1A    1.46540       15.5994           0 -0.713100      0.569800    
     21860 BUTH     340      BUTH     DO1      DRUD     -1.46540      0.400000           0   0.00000       0.00000    
     21861 BUTH     340      BUTH     O2       OD31A     1.58240       15.5990           0 -0.831500      0.749400    
     21862 BUTH     340      BUTH     DO2      DRUD     -1.58240      0.400000           0   0.00000       0.00000    
     21863 BUTH     340      BUTH     H1       HDA3A    0.900000E-01   1.00800           0   0.00000       0.00000    
     21864 BUTH     340      BUTH     H2       HDA3A    0.900000E-01   1.00800           0   0.00000       0.00000    
     21865 BUTH     340      BUTH     H3       HDA3A    0.900000E-01   1.00800           0   0.00000       0.00000    
     21866 BUTH     340      BUTH     H4       HDA2A    0.900000E-01   1.00800           0   0.00000       0.00000    
     21867 BUTH     340      BUTH     H5       HDA2A    0.900000E-01   1.00800           0   0.00000       0.00000    
     21868 BUTH     340      BUTH     H6       HDA2A    0.900000E-01   1.00800           0   0.00000       0.00000    
     21869 BUTH     340      BUTH     H7       HDA2A    0.900000E-01   1.00800           0   0.00000       0.00000    
     21870 BUTH     340      BUTH     H8       HDP1A    0.430000       1.00800           0   0.00000       0.00000    
     21871 BUTH     340      BUTH     H9       DUMH      0.00000       1.00800           0   0.00000       0.00000    
     21872 BUTH     340      BUTH     LPO11    LPDO1   -0.287000       0.00000          -1   0.00000       0.00000    
     21873 BUTH     340      BUTH     LPO12    LPDO1   -0.288000       0.00000          -1   0.00000       0.00000    
     21874 BUTH     340      BUTH     LPO21    LPD     -0.302000       0.00000          -1   0.00000       0.00000    
     21875 BUTH     340      BUTH     LPO22    LPD     -0.303000       0.00000          -1   0.00000       0.00000    
     21876 BUTH     341      BUTH     C1       CD33A     2.05990       11.6110           0  -1.81190       1.18670    
     21877 BUTH     341      BUTH     DC1      DRUD     -2.33590      0.400000           0   0.00000       0.00000    
     21878 BUTH     341      BUTH     C2       CD32A     2.02070       11.6110           0  -1.59660       1.16930    
     21879 BUTH     341      BUTH     DC2      DRUD     -2.19270      0.400000           0   0.00000       0.00000    
     21880 BUTH     341      BUTH     C3       CD32A     1.98270       11.6110           0  -1.59660       1.16930    
     21881 BUTH     341      BUTH     DC3      DRUD     -2.19270      0.400000           0   0.00000       0.00000    
     21882 BUTH     341      BUTH     C4       CD2O3A    2.72690       11.6110           0  -1.26130       1.05430    
     21883 BUTH     341      BUTH     DC4      DRUD     -1.94890      0.400000           0   0.00000       0.00000    
     21884 BUTH     341      BUTH     O1       OD2C1A    1.46540       15.5994           0 -0.713100      0.569800    
     21885 BUTH     341      BUTH     DO1      DRUD     -1.46540      0.400000           0   0.00000       0.00000    
     21886 BUTH     341      BUTH     O2       OD31A     1.58240       15.5990           0 -0.831500      0.749400    
     21887 BUTH     341      BUTH     DO2      DRUD     -1.58240      0.400000           0   0.00000       0.00000    
     21888 BUTH     341      BUTH     H1       HDA3A    0.900000E-01   1.00800           0   0.00000       0.00000    
     21889 BUTH     341      BUTH     H2       HDA3A    0.900000E-01   1.00800           0   0.00000       0.00000    
     21890 BUTH     341      BUTH     H3       HDA3A    0.900000E-01   1.00800           0   0.00000       0.00000    
     21891 BUTH     341      BUTH     H4       HDA2A    0.900000E-01   1.00800           0   0.00000       0.00000    
     21892 BUTH     341      BUTH     H5       HDA2A    0.900000E-01   1.00800           0   0.00000       0.00000    
     21893 BUTH     341      BUTH     H6       HDA2A    0.900000E-01   1.00800           0   0.00000       0.00000    
     21894 BUTH     341      BUTH     H7       HDA2A    0.900000E-01   1.00800           0   0.00000       0.00000    
     21895 BUTH     341      BUTH     H8       HDP1A    0.430000       1.00800           0   0.00000       0.00000    
     21896 BUTH     341      BUTH     H9       DUMH      0.00000       1.00800           0   0.00000       0.00000    
     21897 BUTH     341      BUTH     LPO11    LPDO1   -0.287000       0.00000          -1   0.00000       0.00000    
     21898 BUTH     341      BUTH     LPO12    LPDO1   -0.288000       0.00000          -1   0.00000       0.00000    
     21899 BUTH     341      BUTH     LPO21    LPD     -0.302000       0.00000          -1   0.00000       0.00000    
     21900 BUTH     341      BUTH     LPO22    LPD     -0.303000       0.00000          -1   0.00000       0.00000    
     21901 BUTH     342      BUTH     C1       CD33A     2.05990       11.6110           0  -1.81190       1.18670    
     21902 BUTH     342      BUTH     DC1      DRUD     -2.33590      0.400000           0   0.00000       0.00000    
     21903 BUTH     342      BUTH     C2       CD32A     2.02070       11.6110           0  -1.59660       1.16930    
     21904 BUTH     342      BUTH     DC2      DRUD     -2.19270      0.400000           0   0.00000       0.00000    
     21905 BUTH     342      BUTH     C3       CD32A     1.98270       11.6110           0  -1.59660       1.16930    
     21906 BUTH     342      BUTH     DC3      DRUD     -2.19270      0.400000           0   0.00000       0.00000    
     21907 BUTH     342      BUTH     C4       CD2O3A    2.72690       11.6110           0  -1.26130       1.05430    
     21908 BUTH     342      BUTH     DC4      DRUD     -1.94890      0.400000           0   0.00000       0.00000    
     21909 BUTH     342      BUTH     O1       OD2C1A    1.46540       15.5994           0 -0.713100      0.569800    
     21910 BUTH     342      BUTH     DO1      DRUD     -1.46540      0.400000           0   0.00000       0.00000    
     21911 BUTH     342      BUTH     O2       OD31A     1.58240       15.5990           0 -0.831500      0.749400    
     21912 BUTH     342      BUTH     DO2      DRUD     -1.58240      0.400000           0   0.00000       0.00000    
     21913 BUTH     342      BUTH     H1       HDA3A    0.900000E-01   1.00800           0   0.00000       0.00000    
     21914 BUTH     342      BUTH     H2       HDA3A    0.900000E-01   1.00800           0   0.00000       0.00000    
     21915 BUTH     342      BUTH     H3       HDA3A    0.900000E-01   1.00800           0   0.00000       0.00000    
     21916 BUTH     342      BUTH     H4       HDA2A    0.900000E-01   1.00800           0   0.00000       0.00000    
     21917 BUTH     342      BUTH     H5       HDA2A    0.900000E-01   1.00800           0   0.00000       0.00000    
     21918 BUTH     342      BUTH     H6       HDA2A    0.900000E-01   1.00800           0   0.00000       0.00000    
     21919 BUTH     342      BUTH     H7       HDA2A    0.900000E-01   1.00800           0   0.00000       0.00000    
     21920 BUTH     342      BUTH     H8       HDP1A    0.430000       1.00800           0   0.00000       0.00000    
     21921 BUTH     342      BUTH     H9       DUMH      0.00000       1.00800           0   0.00000       0.00000    
     21922 BUTH     342      BUTH     LPO11    LPDO1   -0.287000       0.00000          -1   0.00000       0.00000    
     21923 BUTH     342      BUTH     LPO12    LPDO1   -0.288000       0.00000          -1   0.00000       0.00000    
     21924 BUTH     342      BUTH     LPO21    LPD     -0.302000       0.00000          -1   0.00000       0.00000    
     21925 BUTH     342      BUTH     LPO22    LPD     -0.303000       0.00000          -1   0.00000       0.00000    
     21926 BUTH     343      BUTH     C1       CD33A     2.05990       11.6110           0  -1.81190       1.18670    
     21927 BUTH     343      BUTH     DC1      DRUD     -2.33590      0.400000           0   0.00000       0.00000    
     21928 BUTH     343      BUTH     C2       CD32A     2.02070       11.6110           0  -1.59660       1.16930    
     21929 BUTH     343      BUTH     DC2      DRUD     -2.19270      0.400000           0   0.00000       0.00000    
     21930 BUTH     343      BUTH     C3       CD32A     1.98270       11.6110           0  -1.59660       1.16930    
     21931 BUTH     343      BUTH     DC3      DRUD     -2.19270      0.400000           0   0.00000       0.00000    
     21932 BUTH     343      BUTH     C4       CD2O3A    2.72690       11.6110           0  -1.26130       1.05430    
     21933 BUTH     343      BUTH     DC4      DRUD     -1.94890      0.400000           0   0.00000       0.00000    
     21934 BUTH     343      BUTH     O1       OD2C1A    1.46540       15.5994           0 -0.713100      0.569800    
     21935 BUTH     343      BUTH     DO1      DRUD     -1.46540      0.400000           0   0.00000       0.00000    
     21936 BUTH     343      BUTH     O2       OD31A     1.58240       15.5990           0 -0.831500      0.749400    
     21937 BUTH     343      BUTH     DO2      DRUD     -1.58240      0.400000           0   0.00000       0.00000    
     21938 BUTH     343      BUTH     H1       HDA3A    0.900000E-01   1.00800           0   0.00000       0.00000    
     21939 BUTH     343      BUTH     H2       HDA3A    0.900000E-01   1.00800           0   0.00000       0.00000    
     21940 BUTH     343      BUTH     H3       HDA3A    0.900000E-01   1.00800           0   0.00000       0.00000    
     21941 BUTH     343      BUTH     H4       HDA2A    0.900000E-01   1.00800           0   0.00000       0.00000    
     21942 BUTH     343      BUTH     H5       HDA2A    0.900000E-01   1.00800           0   0.00000       0.00000    
     21943 BUTH     343      BUTH     H6       HDA2A    0.900000E-01   1.00800           0   0.00000       0.00000    
     21944 BUTH     343      BUTH     H7       HDA2A    0.900000E-01   1.00800           0   0.00000       0.00000    
     21945 BUTH     343      BUTH     H8       HDP1A    0.430000       1.00800           0   0.00000       0.00000    
     21946 BUTH     343      BUTH     H9       DUMH      0.00000       1.00800           0   0.00000       0.00000    
     21947 BUTH     343      BUTH     LPO11    LPDO1   -0.287000       0.00000          -1   0.00000       0.00000    
     21948 BUTH     343      BUTH     LPO12    LPDO1   -0.288000       0.00000          -1   0.00000       0.00000    
     21949 BUTH     343      BUTH     LPO21    LPD     -0.302000       0.00000          -1   0.00000       0.00000    
     21950 BUTH     343      BUTH     LPO22    LPD     -0.303000       0.00000          -1   0.00000       0.00000    
     21951 BUTH     344      BUTH     C1       CD33A     2.05990       11.6110           0  -1.81190       1.18670    
     21952 BUTH     344      BUTH     DC1      DRUD     -2.33590      0.400000           0   0.00000       0.00000    
     21953 BUTH     344      BUTH     C2       CD32A     2.02070       11.6110           0  -1.59660       1.16930    
     21954 BUTH     344      BUTH     DC2      DRUD     -2.19270      0.400000           0   0.00000       0.00000    
     21955 BUTH     344      BUTH     C3       CD32A     1.98270       11.6110           0  -1.59660       1.16930    
     21956 BUTH     344      BUTH     DC3      DRUD     -2.19270      0.400000           0   0.00000       0.00000    
     21957 BUTH     344      BUTH     C4       CD2O3A    2.72690       11.6110           0  -1.26130       1.05430    
     21958 BUTH     344      BUTH     DC4      DRUD     -1.94890      0.400000           0   0.00000       0.00000    
     21959 BUTH     344      BUTH     O1       OD2C1A    1.46540       15.5994           0 -0.713100      0.569800    
     21960 BUTH     344      BUTH     DO1      DRUD     -1.46540      0.400000           0   0.00000       0.00000    
     21961 BUTH     344      BUTH     O2       OD31A     1.58240       15.5990           0 -0.831500      0.749400    
     21962 BUTH     344      BUTH     DO2      DRUD     -1.58240      0.400000           0   0.00000       0.00000    
     21963 BUTH     344      BUTH     H1       HDA3A    0.900000E-01   1.00800           0   0.00000       0.00000    
     21964 BUTH     344      BUTH     H2       HDA3A    0.900000E-01   1.00800           0   0.00000       0.00000    
     21965 BUTH     344      BUTH     H3       HDA3A    0.900000E-01   1.00800           0   0.00000       0.00000    
     21966 BUTH     344      BUTH     H4       HDA2A    0.900000E-01   1.00800           0   0.00000       0.00000    
     21967 BUTH     344      BUTH     H5       HDA2A    0.900000E-01   1.00800           0   0.00000       0.00000    
     21968 BUTH     344      BUTH     H6       HDA2A    0.900000E-01   1.00800           0   0.00000       0.00000    
     21969 BUTH     344      BUTH     H7       HDA2A    0.900000E-01   1.00800           0   0.00000       0.00000    
     21970 BUTH     344      BUTH     H8       HDP1A    0.430000       1.00800           0   0.00000       0.00000    
     21971 BUTH     344      BUTH     H9       DUMH      0.00000       1.00800           0   0.00000       0.00000    
     21972 BUTH     344      BUTH     LPO11    LPDO1   -0.287000       0.00000          -1   0.00000       0.00000    
     21973 BUTH     344      BUTH     LPO12    LPDO1   -0.288000       0.00000          -1   0.00000       0.00000    
     21974 BUTH     344      BUTH     LPO21    LPD     -0.302000       0.00000          -1   0.00000       0.00000    
     21975 BUTH     344      BUTH     LPO22    LPD     -0.303000       0.00000          -1   0.00000       0.00000    
     21976 BUTH     345      BUTH     C1       CD33A     2.05990       11.6110           0  -1.81190       1.18670    
     21977 BUTH     345      BUTH     DC1      DRUD     -2.33590      0.400000           0   0.00000       0.00000    
     21978 BUTH     345      BUTH     C2       CD32A     2.02070       11.6110           0  -1.59660       1.16930    
     21979 BUTH     345      BUTH     DC2      DRUD     -2.19270      0.400000           0   0.00000       0.00000    
     21980 BUTH     345      BUTH     C3       CD32A     1.98270       11.6110           0  -1.59660       1.16930    
     21981 BUTH     345      BUTH     DC3      DRUD     -2.19270      0.400000           0   0.00000       0.00000    
     21982 BUTH     345      BUTH     C4       CD2O3A    2.72690       11.6110           0  -1.26130       1.05430    
     21983 BUTH     345      BUTH     DC4      DRUD     -1.94890      0.400000           0   0.00000       0.00000    
     21984 BUTH     345      BUTH     O1       OD2C1A    1.46540       15.5994           0 -0.713100      0.569800    
     21985 BUTH     345      BUTH     DO1      DRUD     -1.46540      0.400000           0   0.00000       0.00000    
     21986 BUTH     345      BUTH     O2       OD31A     1.58240       15.5990           0 -0.831500      0.749400    
     21987 BUTH     345      BUTH     DO2      DRUD     -1.58240      0.400000           0   0.00000       0.00000    
     21988 BUTH     345      BUTH     H1       HDA3A    0.900000E-01   1.00800           0   0.00000       0.00000    
     21989 BUTH     345      BUTH     H2       HDA3A    0.900000E-01   1.00800           0   0.00000       0.00000    
     21990 BUTH     345      BUTH     H3       HDA3A    0.900000E-01   1.00800           0   0.00000       0.00000    
     21991 BUTH     345      BUTH     H4       HDA2A    0.900000E-01   1.00800           0   0.00000       0.00000    
     21992 BUTH     345      BUTH     H5       HDA2A    0.900000E-01   1.00800           0   0.00000       0.00000    
     21993 BUTH     345      BUTH     H6       HDA2A    0.900000E-01   1.00800           0   0.00000       0.00000    
     21994 BUTH     345      BUTH     H7       HDA2A    0.900000E-01   1.00800           0   0.00000       0.00000    
     21995 BUTH     345      BUTH     H8       HDP1A    0.430000       1.00800           0   0.00000       0.00000    
     21996 BUTH     345      BUTH     H9       DUMH      0.00000       1.00800           0   0.00000       0.00000    
     21997 BUTH     345      BUTH     LPO11    LPDO1   -0.287000       0.00000          -1   0.00000       0.00000    
     21998 BUTH     345      BUTH     LPO12    LPDO1   -0.288000       0.00000          -1   0.00000       0.00000    
     21999 BUTH     345      BUTH     LPO21    LPD     -0.302000       0.00000          -1   0.00000       0.00000    
     22000 BUTH     345      BUTH     LPO22    LPD     -0.303000       0.00000          -1   0.00000       0.00000    
     22001 BUTH     346      BUTH     C1       CD33A     2.05990       11.6110           0  -1.81190       1.18670    
     22002 BUTH     346      BUTH     DC1      DRUD     -2.33590      0.400000           0   0.00000       0.00000    
     22003 BUTH     346      BUTH     C2       CD32A     2.02070       11.6110           0  -1.59660       1.16930    
     22004 BUTH     346      BUTH     DC2      DRUD     -2.19270      0.400000           0   0.00000       0.00000    
     22005 BUTH     346      BUTH     C3       CD32A     1.98270       11.6110           0  -1.59660       1.16930    
     22006 BUTH     346      BUTH     DC3      DRUD     -2.19270      0.400000           0   0.00000       0.00000    
     22007 BUTH     346      BUTH     C4       CD2O3A    2.72690       11.6110           0  -1.26130       1.05430    
     22008 BUTH     346      BUTH     DC4      DRUD     -1.94890      0.400000           0   0.00000       0.00000    
     22009 BUTH     346      BUTH     O1       OD2C1A    1.46540       15.5994           0 -0.713100      0.569800    
     22010 BUTH     346      BUTH     DO1      DRUD     -1.46540      0.400000           0   0.00000       0.00000    
     22011 BUTH     346      BUTH     O2       OD31A     1.58240       15.5990           0 -0.831500      0.749400    
     22012 BUTH     346      BUTH     DO2      DRUD     -1.58240      0.400000           0   0.00000       0.00000    
     22013 BUTH     346      BUTH     H1       HDA3A    0.900000E-01   1.00800           0   0.00000       0.00000    
     22014 BUTH     346      BUTH     H2       HDA3A    0.900000E-01   1.00800           0   0.00000       0.00000    
     22015 BUTH     346      BUTH     H3       HDA3A    0.900000E-01   1.00800           0   0.00000       0.00000    
     22016 BUTH     346      BUTH     H4       HDA2A    0.900000E-01   1.00800           0   0.00000       0.00000    
     22017 BUTH     346      BUTH     H5       HDA2A    0.900000E-01   1.00800           0   0.00000       0.00000    
     22018 BUTH     346      BUTH     H6       HDA2A    0.900000E-01   1.00800           0   0.00000       0.00000    
     22019 BUTH     346      BUTH     H7       HDA2A    0.900000E-01   1.00800           0   0.00000       0.00000    
     22020 BUTH     346      BUTH     H8       HDP1A    0.430000       1.00800           0   0.00000       0.00000    
     22021 BUTH     346      BUTH     H9       DUMH      0.00000       1.00800           0   0.00000       0.00000    
     22022 BUTH     346      BUTH     LPO11    LPDO1   -0.287000       0.00000          -1   0.00000       0.00000    
     22023 BUTH     346      BUTH     LPO12    LPDO1   -0.288000       0.00000          -1   0.00000       0.00000    
     22024 BUTH     346      BUTH     LPO21    LPD     -0.302000       0.00000          -1   0.00000       0.00000    
     22025 BUTH     346      BUTH     LPO22    LPD     -0.303000       0.00000          -1   0.00000       0.00000    
     22026 BUTH     347      BUTH     C1       CD33A     2.05990       11.6110           0  -1.81190       1.18670    
     22027 BUTH     347      BUTH     DC1      DRUD     -2.33590      0.400000           0   0.00000       0.00000    
     22028 BUTH     347      BUTH     C2       CD32A     2.02070       11.6110           0  -1.59660       1.16930    
     22029 BUTH     347      BUTH     DC2      DRUD     -2.19270      0.400000           0   0.00000       0.00000    
     22030 BUTH     347      BUTH     C3       CD32A     1.98270       11.6110           0  -1.59660       1.16930    
     22031 BUTH     347      BUTH     DC3      DRUD     -2.19270      0.400000           0   0.00000       0.00000    
     22032 BUTH     347      BUTH     C4       CD2O3A    2.72690       11.6110           0  -1.26130       1.05430    
     22033 BUTH     347      BUTH     DC4      DRUD     -1.94890      0.400000           0   0.00000       0.00000    
     22034 BUTH     347      BUTH     O1       OD2C1A    1.46540       15.5994           0 -0.713100      0.569800    
     22035 BUTH     347      BUTH     DO1      DRUD     -1.46540      0.400000           0   0.00000       0.00000    
     22036 BUTH     347      BUTH     O2       OD31A     1.58240       15.5990           0 -0.831500      0.749400    
     22037 BUTH     347      BUTH     DO2      DRUD     -1.58240      0.400000           0   0.00000       0.00000    
     22038 BUTH     347      BUTH     H1       HDA3A    0.900000E-01   1.00800           0   0.00000       0.00000    
     22039 BUTH     347      BUTH     H2       HDA3A    0.900000E-01   1.00800           0   0.00000       0.00000    
     22040 BUTH     347      BUTH     H3       HDA3A    0.900000E-01   1.00800           0   0.00000       0.00000    
     22041 BUTH     347      BUTH     H4       HDA2A    0.900000E-01   1.00800           0   0.00000       0.00000    
     22042 BUTH     347      BUTH     H5       HDA2A    0.900000E-01   1.00800           0   0.00000       0.00000    
     22043 BUTH     347      BUTH     H6       HDA2A    0.900000E-01   1.00800           0   0.00000       0.00000    
     22044 BUTH     347      BUTH     H7       HDA2A    0.900000E-01   1.00800           0   0.00000       0.00000    
     22045 BUTH     347      BUTH     H8       HDP1A    0.430000       1.00800           0   0.00000       0.00000    
     22046 BUTH     347      BUTH     H9       DUMH      0.00000       1.00800           0   0.00000       0.00000    
     22047 BUTH     347      BUTH     LPO11    LPDO1   -0.287000       0.00000          -1   0.00000       0.00000    
     22048 BUTH     347      BUTH     LPO12    LPDO1   -0.288000       0.00000          -1   0.00000       0.00000    
     22049 BUTH     347      BUTH     LPO21    LPD     -0.302000       0.00000          -1   0.00000       0.00000    
     22050 BUTH     347      BUTH     LPO22    LPD     -0.303000       0.00000          -1   0.00000       0.00000    
     22051 BUTH     348      BUTH     C1       CD33A     2.05990       11.6110           0  -1.81190       1.18670    
     22052 BUTH     348      BUTH     DC1      DRUD     -2.33590      0.400000           0   0.00000       0.00000    
     22053 BUTH     348      BUTH     C2       CD32A     2.02070       11.6110           0  -1.59660       1.16930    
     22054 BUTH     348      BUTH     DC2      DRUD     -2.19270      0.400000           0   0.00000       0.00000    
     22055 BUTH     348      BUTH     C3       CD32A     1.98270       11.6110           0  -1.59660       1.16930    
     22056 BUTH     348      BUTH     DC3      DRUD     -2.19270      0.400000           0   0.00000       0.00000    
     22057 BUTH     348      BUTH     C4       CD2O3A    2.72690       11.6110           0  -1.26130       1.05430    
     22058 BUTH     348      BUTH     DC4      DRUD     -1.94890      0.400000           0   0.00000       0.00000    
     22059 BUTH     348      BUTH     O1       OD2C1A    1.46540       15.5994           0 -0.713100      0.569800    
     22060 BUTH     348      BUTH     DO1      DRUD     -1.46540      0.400000           0   0.00000       0.00000    
     22061 BUTH     348      BUTH     O2       OD31A     1.58240       15.5990           0 -0.831500      0.749400    
     22062 BUTH     348      BUTH     DO2      DRUD     -1.58240      0.400000           0   0.00000       0.00000    
     22063 BUTH     348      BUTH     H1       HDA3A    0.900000E-01   1.00800           0   0.00000       0.00000    
     22064 BUTH     348      BUTH     H2       HDA3A    0.900000E-01   1.00800           0   0.00000       0.00000    
     22065 BUTH     348      BUTH     H3       HDA3A    0.900000E-01   1.00800           0   0.00000       0.00000    
     22066 BUTH     348      BUTH     H4       HDA2A    0.900000E-01   1.00800           0   0.00000       0.00000    
     22067 BUTH     348      BUTH     H5       HDA2A    0.900000E-01   1.00800           0   0.00000       0.00000    
     22068 BUTH     348      BUTH     H6       HDA2A    0.900000E-01   1.00800           0   0.00000       0.00000    
     22069 BUTH     348      BUTH     H7       HDA2A    0.900000E-01   1.00800           0   0.00000       0.00000    
     22070 BUTH     348      BUTH     H8       HDP1A    0.430000       1.00800           0   0.00000       0.00000    
     22071 BUTH     348      BUTH     H9       DUMH      0.00000       1.00800           0   0.00000       0.00000    
     22072 BUTH     348      BUTH     LPO11    LPDO1   -0.287000       0.00000          -1   0.00000       0.00000    
     22073 BUTH     348      BUTH     LPO12    LPDO1   -0.288000       0.00000          -1   0.00000       0.00000    
     22074 BUTH     348      BUTH     LPO21    LPD     -0.302000       0.00000          -1   0.00000       0.00000    
     22075 BUTH     348      BUTH     LPO22    LPD     -0.303000       0.00000          -1   0.00000       0.00000    
     22076 BUTH     349      BUTH     C1       CD33A     2.05990       11.6110           0  -1.81190       1.18670    
     22077 BUTH     349      BUTH     DC1      DRUD     -2.33590      0.400000           0   0.00000       0.00000    
     22078 BUTH     349      BUTH     C2       CD32A     2.02070       11.6110           0  -1.59660       1.16930    
     22079 BUTH     349      BUTH     DC2      DRUD     -2.19270      0.400000           0   0.00000       0.00000    
     22080 BUTH     349      BUTH     C3       CD32A     1.98270       11.6110           0  -1.59660       1.16930    
     22081 BUTH     349      BUTH     DC3      DRUD     -2.19270      0.400000           0   0.00000       0.00000    
     22082 BUTH     349      BUTH     C4       CD2O3A    2.72690       11.6110           0  -1.26130       1.05430    
     22083 BUTH     349      BUTH     DC4      DRUD     -1.94890      0.400000           0   0.00000       0.00000    
     22084 BUTH     349      BUTH     O1       OD2C1A    1.46540       15.5994           0 -0.713100      0.569800    
     22085 BUTH     349      BUTH     DO1      DRUD     -1.46540      0.400000           0   0.00000       0.00000    
     22086 BUTH     349      BUTH     O2       OD31A     1.58240       15.5990           0 -0.831500      0.749400    
     22087 BUTH     349      BUTH     DO2      DRUD     -1.58240      0.400000           0   0.00000       0.00000    
     22088 BUTH     349      BUTH     H1       HDA3A    0.900000E-01   1.00800           0   0.00000       0.00000    
     22089 BUTH     349      BUTH     H2       HDA3A    0.900000E-01   1.00800           0   0.00000       0.00000    
     22090 BUTH     349      BUTH     H3       HDA3A    0.900000E-01   1.00800           0   0.00000       0.00000    
     22091 BUTH     349      BUTH     H4       HDA2A    0.900000E-01   1.00800           0   0.00000       0.00000    
     22092 BUTH     349      BUTH     H5       HDA2A    0.900000E-01   1.00800           0   0.00000       0.00000    
     22093 BUTH     349      BUTH     H6       HDA2A    0.900000E-01   1.00800           0   0.00000       0.00000    
     22094 BUTH     349      BUTH     H7       HDA2A    0.900000E-01   1.00800           0   0.00000       0.00000    
     22095 BUTH     349      BUTH     H8       HDP1A    0.430000       1.00800           0   0.00000       0.00000    
     22096 BUTH     349      BUTH     H9       DUMH      0.00000       1.00800           0   0.00000       0.00000    
     22097 BUTH     349      BUTH     LPO11    LPDO1   -0.287000       0.00000          -1   0.00000       0.00000    
     22098 BUTH     349      BUTH     LPO12    LPDO1   -0.288000       0.00000          -1   0.00000       0.00000    
     22099 BUTH     349      BUTH     LPO21    LPD     -0.302000       0.00000          -1   0.00000       0.00000    
     22100 BUTH     349      BUTH     LPO22    LPD     -0.303000       0.00000          -1   0.00000       0.00000    
     22101 BUTH     350      BUTH     C1       CD33A     2.05990       11.6110           0  -1.81190       1.18670    
     22102 BUTH     350      BUTH     DC1      DRUD     -2.33590      0.400000           0   0.00000       0.00000    
     22103 BUTH     350      BUTH     C2       CD32A     2.02070       11.6110           0  -1.59660       1.16930    
     22104 BUTH     350      BUTH     DC2      DRUD     -2.19270      0.400000           0   0.00000       0.00000    
     22105 BUTH     350      BUTH     C3       CD32A     1.98270       11.6110           0  -1.59660       1.16930    
     22106 BUTH     350      BUTH     DC3      DRUD     -2.19270      0.400000           0   0.00000       0.00000    
     22107 BUTH     350      BUTH     C4       CD2O3A    2.72690       11.6110           0  -1.26130       1.05430    
     22108 BUTH     350      BUTH     DC4      DRUD     -1.94890      0.400000           0   0.00000       0.00000    
     22109 BUTH     350      BUTH     O1       OD2C1A    1.46540       15.5994           0 -0.713100      0.569800    
     22110 BUTH     350      BUTH     DO1      DRUD     -1.46540      0.400000           0   0.00000       0.00000    
     22111 BUTH     350      BUTH     O2       OD31A     1.58240       15.5990           0 -0.831500      0.749400    
     22112 BUTH     350      BUTH     DO2      DRUD     -1.58240      0.400000           0   0.00000       0.00000    
     22113 BUTH     350      BUTH     H1       HDA3A    0.900000E-01   1.00800           0   0.00000       0.00000    
     22114 BUTH     350      BUTH     H2       HDA3A    0.900000E-01   1.00800           0   0.00000       0.00000    
     22115 BUTH     350      BUTH     H3       HDA3A    0.900000E-01   1.00800           0   0.00000       0.00000    
     22116 BUTH     350      BUTH     H4       HDA2A    0.900000E-01   1.00800           0   0.00000       0.00000    
     22117 BUTH     350      BUTH     H5       HDA2A    0.900000E-01   1.00800           0   0.00000       0.00000    
     22118 BUTH     350      BUTH     H6       HDA2A    0.900000E-01   1.00800           0   0.00000       0.00000    
     22119 BUTH     350      BUTH     H7       HDA2A    0.900000E-01   1.00800           0   0.00000       0.00000    
     22120 BUTH     350      BUTH     H8       HDP1A    0.430000       1.00800           0   0.00000       0.00000    
     22121 BUTH     350      BUTH     H9       DUMH      0.00000       1.00800           0   0.00000       0.00000    
     22122 BUTH     350      BUTH     LPO11    LPDO1   -0.287000       0.00000          -1   0.00000       0.00000    
     22123 BUTH     350      BUTH     LPO12    LPDO1   -0.288000       0.00000          -1   0.00000       0.00000    
     22124 BUTH     350      BUTH     LPO21    LPD     -0.302000       0.00000          -1   0.00000       0.00000    
     22125 BUTH     350      BUTH     LPO22    LPD     -0.303000       0.00000          -1   0.00000       0.00000    
     22126 BUTH     351      BUTH     C1       CD33A     2.05990       11.6110           0  -1.81190       1.18670    
     22127 BUTH     351      BUTH     DC1      DRUD     -2.33590      0.400000           0   0.00000       0.00000    
     22128 BUTH     351      BUTH     C2       CD32A     2.02070       11.6110           0  -1.59660       1.16930    
     22129 BUTH     351      BUTH     DC2      DRUD     -2.19270      0.400000           0   0.00000       0.00000    
     22130 BUTH     351      BUTH     C3       CD32A     1.98270       11.6110           0  -1.59660       1.16930    
     22131 BUTH     351      BUTH     DC3      DRUD     -2.19270      0.400000           0   0.00000       0.00000    
     22132 BUTH     351      BUTH     C4       CD2O3A    2.72690       11.6110           0  -1.26130       1.05430    
     22133 BUTH     351      BUTH     DC4      DRUD     -1.94890      0.400000           0   0.00000       0.00000    
     22134 BUTH     351      BUTH     O1       OD2C1A    1.46540       15.5994           0 -0.713100      0.569800    
     22135 BUTH     351      BUTH     DO1      DRUD     -1.46540      0.400000           0   0.00000       0.00000    
     22136 BUTH     351      BUTH     O2       OD31A     1.58240       15.5990           0 -0.831500      0.749400    
     22137 BUTH     351      BUTH     DO2      DRUD     -1.58240      0.400000           0   0.00000       0.00000    
     22138 BUTH     351      BUTH     H1       HDA3A    0.900000E-01   1.00800           0   0.00000       0.00000    
     22139 BUTH     351      BUTH     H2       HDA3A    0.900000E-01   1.00800           0   0.00000       0.00000    
     22140 BUTH     351      BUTH     H3       HDA3A    0.900000E-01   1.00800           0   0.00000       0.00000    
     22141 BUTH     351      BUTH     H4       HDA2A    0.900000E-01   1.00800           0   0.00000       0.00000    
     22142 BUTH     351      BUTH     H5       HDA2A    0.900000E-01   1.00800           0   0.00000       0.00000    
     22143 BUTH     351      BUTH     H6       HDA2A    0.900000E-01   1.00800           0   0.00000       0.00000    
     22144 BUTH     351      BUTH     H7       HDA2A    0.900000E-01   1.00800           0   0.00000       0.00000    
     22145 BUTH     351      BUTH     H8       HDP1A    0.430000       1.00800           0   0.00000       0.00000    
     22146 BUTH     351      BUTH     H9       DUMH      0.00000       1.00800           0   0.00000       0.00000    
     22147 BUTH     351      BUTH     LPO11    LPDO1   -0.287000       0.00000          -1   0.00000       0.00000    
     22148 BUTH     351      BUTH     LPO12    LPDO1   -0.288000       0.00000          -1   0.00000       0.00000    
     22149 BUTH     351      BUTH     LPO21    LPD     -0.302000       0.00000          -1   0.00000       0.00000    
     22150 BUTH     351      BUTH     LPO22    LPD     -0.303000       0.00000          -1   0.00000       0.00000    
     22151 BUTH     352      BUTH     C1       CD33A     2.05990       11.6110           0  -1.81190       1.18670    
     22152 BUTH     352      BUTH     DC1      DRUD     -2.33590      0.400000           0   0.00000       0.00000    
     22153 BUTH     352      BUTH     C2       CD32A     2.02070       11.6110           0  -1.59660       1.16930    
     22154 BUTH     352      BUTH     DC2      DRUD     -2.19270      0.400000           0   0.00000       0.00000    
     22155 BUTH     352      BUTH     C3       CD32A     1.98270       11.6110           0  -1.59660       1.16930    
     22156 BUTH     352      BUTH     DC3      DRUD     -2.19270      0.400000           0   0.00000       0.00000    
     22157 BUTH     352      BUTH     C4       CD2O3A    2.72690       11.6110           0  -1.26130       1.05430    
     22158 BUTH     352      BUTH     DC4      DRUD     -1.94890      0.400000           0   0.00000       0.00000    
     22159 BUTH     352      BUTH     O1       OD2C1A    1.46540       15.5994           0 -0.713100      0.569800    
     22160 BUTH     352      BUTH     DO1      DRUD     -1.46540      0.400000           0   0.00000       0.00000    
     22161 BUTH     352      BUTH     O2       OD31A     1.58240       15.5990           0 -0.831500      0.749400    
     22162 BUTH     352      BUTH     DO2      DRUD     -1.58240      0.400000           0   0.00000       0.00000    
     22163 BUTH     352      BUTH     H1       HDA3A    0.900000E-01   1.00800           0   0.00000       0.00000    
     22164 BUTH     352      BUTH     H2       HDA3A    0.900000E-01   1.00800           0   0.00000       0.00000    
     22165 BUTH     352      BUTH     H3       HDA3A    0.900000E-01   1.00800           0   0.00000       0.00000    
     22166 BUTH     352      BUTH     H4       HDA2A    0.900000E-01   1.00800           0   0.00000       0.00000    
     22167 BUTH     352      BUTH     H5       HDA2A    0.900000E-01   1.00800           0   0.00000       0.00000    
     22168 BUTH     352      BUTH     H6       HDA2A    0.900000E-01   1.00800           0   0.00000       0.00000    
     22169 BUTH     352      BUTH     H7       HDA2A    0.900000E-01   1.00800           0   0.00000       0.00000    
     22170 BUTH     352      BUTH     H8       HDP1A    0.430000       1.00800           0   0.00000       0.00000    
     22171 BUTH     352      BUTH     H9       DUMH      0.00000       1.00800           0   0.00000       0.00000    
     22172 BUTH     352      BUTH     LPO11    LPDO1   -0.287000       0.00000          -1   0.00000       0.00000    
     22173 BUTH     352      BUTH     LPO12    LPDO1   -0.288000       0.00000          -1   0.00000       0.00000    
     22174 BUTH     352      BUTH     LPO21    LPD     -0.302000       0.00000          -1   0.00000       0.00000    
     22175 BUTH     352      BUTH     LPO22    LPD     -0.303000       0.00000          -1   0.00000       0.00000    
     22176 BUTH     353      BUTH     C1       CD33A     2.05990       11.6110           0  -1.81190       1.18670    
     22177 BUTH     353      BUTH     DC1      DRUD     -2.33590      0.400000           0   0.00000       0.00000    
     22178 BUTH     353      BUTH     C2       CD32A     2.02070       11.6110           0  -1.59660       1.16930    
     22179 BUTH     353      BUTH     DC2      DRUD     -2.19270      0.400000           0   0.00000       0.00000    
     22180 BUTH     353      BUTH     C3       CD32A     1.98270       11.6110           0  -1.59660       1.16930    
     22181 BUTH     353      BUTH     DC3      DRUD     -2.19270      0.400000           0   0.00000       0.00000    
     22182 BUTH     353      BUTH     C4       CD2O3A    2.72690       11.6110           0  -1.26130       1.05430    
     22183 BUTH     353      BUTH     DC4      DRUD     -1.94890      0.400000           0   0.00000       0.00000    
     22184 BUTH     353      BUTH     O1       OD2C1A    1.46540       15.5994           0 -0.713100      0.569800    
     22185 BUTH     353      BUTH     DO1      DRUD     -1.46540      0.400000           0   0.00000       0.00000    
     22186 BUTH     353      BUTH     O2       OD31A     1.58240       15.5990           0 -0.831500      0.749400    
     22187 BUTH     353      BUTH     DO2      DRUD     -1.58240      0.400000           0   0.00000       0.00000    
     22188 BUTH     353      BUTH     H1       HDA3A    0.900000E-01   1.00800           0   0.00000       0.00000    
     22189 BUTH     353      BUTH     H2       HDA3A    0.900000E-01   1.00800           0   0.00000       0.00000    
     22190 BUTH     353      BUTH     H3       HDA3A    0.900000E-01   1.00800           0   0.00000       0.00000    
     22191 BUTH     353      BUTH     H4       HDA2A    0.900000E-01   1.00800           0   0.00000       0.00000    
     22192 BUTH     353      BUTH     H5       HDA2A    0.900000E-01   1.00800           0   0.00000       0.00000    
     22193 BUTH     353      BUTH     H6       HDA2A    0.900000E-01   1.00800           0   0.00000       0.00000    
     22194 BUTH     353      BUTH     H7       HDA2A    0.900000E-01   1.00800           0   0.00000       0.00000    
     22195 BUTH     353      BUTH     H8       HDP1A    0.430000       1.00800           0   0.00000       0.00000    
     22196 BUTH     353      BUTH     H9       DUMH      0.00000       1.00800           0   0.00000       0.00000    
     22197 BUTH     353      BUTH     LPO11    LPDO1   -0.287000       0.00000          -1   0.00000       0.00000    
     22198 BUTH     353      BUTH     LPO12    LPDO1   -0.288000       0.00000          -1   0.00000       0.00000    
     22199 BUTH     353      BUTH     LPO21    LPD     -0.302000       0.00000          -1   0.00000       0.00000    
     22200 BUTH     353      BUTH     LPO22    LPD     -0.303000       0.00000          -1   0.00000       0.00000    
     22201 BUTH     354      BUTH     C1       CD33A     2.05990       11.6110           0  -1.81190       1.18670    
     22202 BUTH     354      BUTH     DC1      DRUD     -2.33590      0.400000           0   0.00000       0.00000    
     22203 BUTH     354      BUTH     C2       CD32A     2.02070       11.6110           0  -1.59660       1.16930    
     22204 BUTH     354      BUTH     DC2      DRUD     -2.19270      0.400000           0   0.00000       0.00000    
     22205 BUTH     354      BUTH     C3       CD32A     1.98270       11.6110           0  -1.59660       1.16930    
     22206 BUTH     354      BUTH     DC3      DRUD     -2.19270      0.400000           0   0.00000       0.00000    
     22207 BUTH     354      BUTH     C4       CD2O3A    2.72690       11.6110           0  -1.26130       1.05430    
     22208 BUTH     354      BUTH     DC4      DRUD     -1.94890      0.400000           0   0.00000       0.00000    
     22209 BUTH     354      BUTH     O1       OD2C1A    1.46540       15.5994           0 -0.713100      0.569800    
     22210 BUTH     354      BUTH     DO1      DRUD     -1.46540      0.400000           0   0.00000       0.00000    
     22211 BUTH     354      BUTH     O2       OD31A     1.58240       15.5990           0 -0.831500      0.749400    
     22212 BUTH     354      BUTH     DO2      DRUD     -1.58240      0.400000           0   0.00000       0.00000    
     22213 BUTH     354      BUTH     H1       HDA3A    0.900000E-01   1.00800           0   0.00000       0.00000    
     22214 BUTH     354      BUTH     H2       HDA3A    0.900000E-01   1.00800           0   0.00000       0.00000    
     22215 BUTH     354      BUTH     H3       HDA3A    0.900000E-01   1.00800           0   0.00000       0.00000    
     22216 BUTH     354      BUTH     H4       HDA2A    0.900000E-01   1.00800           0   0.00000       0.00000    
     22217 BUTH     354      BUTH     H5       HDA2A    0.900000E-01   1.00800           0   0.00000       0.00000    
     22218 BUTH     354      BUTH     H6       HDA2A    0.900000E-01   1.00800           0   0.00000       0.00000    
     22219 BUTH     354      BUTH     H7       HDA2A    0.900000E-01   1.00800           0   0.00000       0.00000    
     22220 BUTH     354      BUTH     H8       HDP1A    0.430000       1.00800           0   0.00000       0.00000    
     22221 BUTH     354      BUTH     H9       DUMH      0.00000       1.00800           0   0.00000       0.00000    
     22222 BUTH     354      BUTH     LPO11    LPDO1   -0.287000       0.00000          -1   0.00000       0.00000    
     22223 BUTH     354      BUTH     LPO12    LPDO1   -0.288000       0.00000          -1   0.00000       0.00000    
     22224 BUTH     354      BUTH     LPO21    LPD     -0.302000       0.00000          -1   0.00000       0.00000    
     22225 BUTH     354      BUTH     LPO22    LPD     -0.303000       0.00000          -1   0.00000       0.00000    
     22226 BUTH     355      BUTH     C1       CD33A     2.05990       11.6110           0  -1.81190       1.18670    
     22227 BUTH     355      BUTH     DC1      DRUD     -2.33590      0.400000           0   0.00000       0.00000    
     22228 BUTH     355      BUTH     C2       CD32A     2.02070       11.6110           0  -1.59660       1.16930    
     22229 BUTH     355      BUTH     DC2      DRUD     -2.19270      0.400000           0   0.00000       0.00000    
     22230 BUTH     355      BUTH     C3       CD32A     1.98270       11.6110           0  -1.59660       1.16930    
     22231 BUTH     355      BUTH     DC3      DRUD     -2.19270      0.400000           0   0.00000       0.00000    
     22232 BUTH     355      BUTH     C4       CD2O3A    2.72690       11.6110           0  -1.26130       1.05430    
     22233 BUTH     355      BUTH     DC4      DRUD     -1.94890      0.400000           0   0.00000       0.00000    
     22234 BUTH     355      BUTH     O1       OD2C1A    1.46540       15.5994           0 -0.713100      0.569800    
     22235 BUTH     355      BUTH     DO1      DRUD     -1.46540      0.400000           0   0.00000       0.00000    
     22236 BUTH     355      BUTH     O2       OD31A     1.58240       15.5990           0 -0.831500      0.749400    
     22237 BUTH     355      BUTH     DO2      DRUD     -1.58240      0.400000           0   0.00000       0.00000    
     22238 BUTH     355      BUTH     H1       HDA3A    0.900000E-01   1.00800           0   0.00000       0.00000    
     22239 BUTH     355      BUTH     H2       HDA3A    0.900000E-01   1.00800           0   0.00000       0.00000    
     22240 BUTH     355      BUTH     H3       HDA3A    0.900000E-01   1.00800           0   0.00000       0.00000    
     22241 BUTH     355      BUTH     H4       HDA2A    0.900000E-01   1.00800           0   0.00000       0.00000    
     22242 BUTH     355      BUTH     H5       HDA2A    0.900000E-01   1.00800           0   0.00000       0.00000    
     22243 BUTH     355      BUTH     H6       HDA2A    0.900000E-01   1.00800           0   0.00000       0.00000    
     22244 BUTH     355      BUTH     H7       HDA2A    0.900000E-01   1.00800           0   0.00000       0.00000    
     22245 BUTH     355      BUTH     H8       HDP1A    0.430000       1.00800           0   0.00000       0.00000    
     22246 BUTH     355      BUTH     H9       DUMH      0.00000       1.00800           0   0.00000       0.00000    
     22247 BUTH     355      BUTH     LPO11    LPDO1   -0.287000       0.00000          -1   0.00000       0.00000    
     22248 BUTH     355      BUTH     LPO12    LPDO1   -0.288000       0.00000          -1   0.00000       0.00000    
     22249 BUTH     355      BUTH     LPO21    LPD     -0.302000       0.00000          -1   0.00000       0.00000    
     22250 BUTH     355      BUTH     LPO22    LPD     -0.303000       0.00000          -1   0.00000       0.00000    
     22251 BUTH     356      BUTH     C1       CD33A     2.05990       11.6110           0  -1.81190       1.18670    
     22252 BUTH     356      BUTH     DC1      DRUD     -2.33590      0.400000           0   0.00000       0.00000    
     22253 BUTH     356      BUTH     C2       CD32A     2.02070       11.6110           0  -1.59660       1.16930    
     22254 BUTH     356      BUTH     DC2      DRUD     -2.19270      0.400000           0   0.00000       0.00000    
     22255 BUTH     356      BUTH     C3       CD32A     1.98270       11.6110           0  -1.59660       1.16930    
     22256 BUTH     356      BUTH     DC3      DRUD     -2.19270      0.400000           0   0.00000       0.00000    
     22257 BUTH     356      BUTH     C4       CD2O3A    2.72690       11.6110           0  -1.26130       1.05430    
     22258 BUTH     356      BUTH     DC4      DRUD     -1.94890      0.400000           0   0.00000       0.00000    
     22259 BUTH     356      BUTH     O1       OD2C1A    1.46540       15.5994           0 -0.713100      0.569800    
     22260 BUTH     356      BUTH     DO1      DRUD     -1.46540      0.400000           0   0.00000       0.00000    
     22261 BUTH     356      BUTH     O2       OD31A     1.58240       15.5990           0 -0.831500      0.749400    
     22262 BUTH     356      BUTH     DO2      DRUD     -1.58240      0.400000           0   0.00000       0.00000    
     22263 BUTH     356      BUTH     H1       HDA3A    0.900000E-01   1.00800           0   0.00000       0.00000    
     22264 BUTH     356      BUTH     H2       HDA3A    0.900000E-01   1.00800           0   0.00000       0.00000    
     22265 BUTH     356      BUTH     H3       HDA3A    0.900000E-01   1.00800           0   0.00000       0.00000    
     22266 BUTH     356      BUTH     H4       HDA2A    0.900000E-01   1.00800           0   0.00000       0.00000    
     22267 BUTH     356      BUTH     H5       HDA2A    0.900000E-01   1.00800           0   0.00000       0.00000    
     22268 BUTH     356      BUTH     H6       HDA2A    0.900000E-01   1.00800           0   0.00000       0.00000    
     22269 BUTH     356      BUTH     H7       HDA2A    0.900000E-01   1.00800           0   0.00000       0.00000    
     22270 BUTH     356      BUTH     H8       HDP1A    0.430000       1.00800           0   0.00000       0.00000    
     22271 BUTH     356      BUTH     H9       DUMH      0.00000       1.00800           0   0.00000       0.00000    
     22272 BUTH     356      BUTH     LPO11    LPDO1   -0.287000       0.00000          -1   0.00000       0.00000    
     22273 BUTH     356      BUTH     LPO12    LPDO1   -0.288000       0.00000          -1   0.00000       0.00000    
     22274 BUTH     356      BUTH     LPO21    LPD     -0.302000       0.00000          -1   0.00000       0.00000    
     22275 BUTH     356      BUTH     LPO22    LPD     -0.303000       0.00000          -1   0.00000       0.00000    
     22276 BUTH     357      BUTH     C1       CD33A     2.05990       11.6110           0  -1.81190       1.18670    
     22277 BUTH     357      BUTH     DC1      DRUD     -2.33590      0.400000           0   0.00000       0.00000    
     22278 BUTH     357      BUTH     C2       CD32A     2.02070       11.6110           0  -1.59660       1.16930    
     22279 BUTH     357      BUTH     DC2      DRUD     -2.19270      0.400000           0   0.00000       0.00000    
     22280 BUTH     357      BUTH     C3       CD32A     1.98270       11.6110           0  -1.59660       1.16930    
     22281 BUTH     357      BUTH     DC3      DRUD     -2.19270      0.400000           0   0.00000       0.00000    
     22282 BUTH     357      BUTH     C4       CD2O3A    2.72690       11.6110           0  -1.26130       1.05430    
     22283 BUTH     357      BUTH     DC4      DRUD     -1.94890      0.400000           0   0.00000       0.00000    
     22284 BUTH     357      BUTH     O1       OD2C1A    1.46540       15.5994           0 -0.713100      0.569800    
     22285 BUTH     357      BUTH     DO1      DRUD     -1.46540      0.400000           0   0.00000       0.00000    
     22286 BUTH     357      BUTH     O2       OD31A     1.58240       15.5990           0 -0.831500      0.749400    
     22287 BUTH     357      BUTH     DO2      DRUD     -1.58240      0.400000           0   0.00000       0.00000    
     22288 BUTH     357      BUTH     H1       HDA3A    0.900000E-01   1.00800           0   0.00000       0.00000    
     22289 BUTH     357      BUTH     H2       HDA3A    0.900000E-01   1.00800           0   0.00000       0.00000    
     22290 BUTH     357      BUTH     H3       HDA3A    0.900000E-01   1.00800           0   0.00000       0.00000    
     22291 BUTH     357      BUTH     H4       HDA2A    0.900000E-01   1.00800           0   0.00000       0.00000    
     22292 BUTH     357      BUTH     H5       HDA2A    0.900000E-01   1.00800           0   0.00000       0.00000    
     22293 BUTH     357      BUTH     H6       HDA2A    0.900000E-01   1.00800           0   0.00000       0.00000    
     22294 BUTH     357      BUTH     H7       HDA2A    0.900000E-01   1.00800           0   0.00000       0.00000    
     22295 BUTH     357      BUTH     H8       HDP1A    0.430000       1.00800           0   0.00000       0.00000    
     22296 BUTH     357      BUTH     H9       DUMH      0.00000       1.00800           0   0.00000       0.00000    
     22297 BUTH     357      BUTH     LPO11    LPDO1   -0.287000       0.00000          -1   0.00000       0.00000    
     22298 BUTH     357      BUTH     LPO12    LPDO1   -0.288000       0.00000          -1   0.00000       0.00000    
     22299 BUTH     357      BUTH     LPO21    LPD     -0.302000       0.00000          -1   0.00000       0.00000    
     22300 BUTH     357      BUTH     LPO22    LPD     -0.303000       0.00000          -1   0.00000       0.00000    
     22301 BUTH     358      BUTH     C1       CD33A     2.05990       11.6110           0  -1.81190       1.18670    
     22302 BUTH     358      BUTH     DC1      DRUD     -2.33590      0.400000           0   0.00000       0.00000    
     22303 BUTH     358      BUTH     C2       CD32A     2.02070       11.6110           0  -1.59660       1.16930    
     22304 BUTH     358      BUTH     DC2      DRUD     -2.19270      0.400000           0   0.00000       0.00000    
     22305 BUTH     358      BUTH     C3       CD32A     1.98270       11.6110           0  -1.59660       1.16930    
     22306 BUTH     358      BUTH     DC3      DRUD     -2.19270      0.400000           0   0.00000       0.00000    
     22307 BUTH     358      BUTH     C4       CD2O3A    2.72690       11.6110           0  -1.26130       1.05430    
     22308 BUTH     358      BUTH     DC4      DRUD     -1.94890      0.400000           0   0.00000       0.00000    
     22309 BUTH     358      BUTH     O1       OD2C1A    1.46540       15.5994           0 -0.713100      0.569800    
     22310 BUTH     358      BUTH     DO1      DRUD     -1.46540      0.400000           0   0.00000       0.00000    
     22311 BUTH     358      BUTH     O2       OD31A     1.58240       15.5990           0 -0.831500      0.749400    
     22312 BUTH     358      BUTH     DO2      DRUD     -1.58240      0.400000           0   0.00000       0.00000    
     22313 BUTH     358      BUTH     H1       HDA3A    0.900000E-01   1.00800           0   0.00000       0.00000    
     22314 BUTH     358      BUTH     H2       HDA3A    0.900000E-01   1.00800           0   0.00000       0.00000    
     22315 BUTH     358      BUTH     H3       HDA3A    0.900000E-01   1.00800           0   0.00000       0.00000    
     22316 BUTH     358      BUTH     H4       HDA2A    0.900000E-01   1.00800           0   0.00000       0.00000    
     22317 BUTH     358      BUTH     H5       HDA2A    0.900000E-01   1.00800           0   0.00000       0.00000    
     22318 BUTH     358      BUTH     H6       HDA2A    0.900000E-01   1.00800           0   0.00000       0.00000    
     22319 BUTH     358      BUTH     H7       HDA2A    0.900000E-01   1.00800           0   0.00000       0.00000    
     22320 BUTH     358      BUTH     H8       HDP1A    0.430000       1.00800           0   0.00000       0.00000    
     22321 BUTH     358      BUTH     H9       DUMH      0.00000       1.00800           0   0.00000       0.00000    
     22322 BUTH     358      BUTH     LPO11    LPDO1   -0.287000       0.00000          -1   0.00000       0.00000    
     22323 BUTH     358      BUTH     LPO12    LPDO1   -0.288000       0.00000          -1   0.00000       0.00000    
     22324 BUTH     358      BUTH     LPO21    LPD     -0.302000       0.00000          -1   0.00000       0.00000    
     22325 BUTH     358      BUTH     LPO22    LPD     -0.303000       0.00000          -1   0.00000       0.00000    
     22326 BUTH     359      BUTH     C1       CD33A     2.05990       11.6110           0  -1.81190       1.18670    
     22327 BUTH     359      BUTH     DC1      DRUD     -2.33590      0.400000           0   0.00000       0.00000    
     22328 BUTH     359      BUTH     C2       CD32A     2.02070       11.6110           0  -1.59660       1.16930    
     22329 BUTH     359      BUTH     DC2      DRUD     -2.19270      0.400000           0   0.00000       0.00000    
     22330 BUTH     359      BUTH     C3       CD32A     1.98270       11.6110           0  -1.59660       1.16930    
     22331 BUTH     359      BUTH     DC3      DRUD     -2.19270      0.400000           0   0.00000       0.00000    
     22332 BUTH     359      BUTH     C4       CD2O3A    2.72690       11.6110           0  -1.26130       1.05430    
     22333 BUTH     359      BUTH     DC4      DRUD     -1.94890      0.400000           0   0.00000       0.00000    
     22334 BUTH     359      BUTH     O1       OD2C1A    1.46540       15.5994           0 -0.713100      0.569800    
     22335 BUTH     359      BUTH     DO1      DRUD     -1.46540      0.400000           0   0.00000       0.00000    
     22336 BUTH     359      BUTH     O2       OD31A     1.58240       15.5990           0 -0.831500      0.749400    
     22337 BUTH     359      BUTH     DO2      DRUD     -1.58240      0.400000           0   0.00000       0.00000    
     22338 BUTH     359      BUTH     H1       HDA3A    0.900000E-01   1.00800           0   0.00000       0.00000    
     22339 BUTH     359      BUTH     H2       HDA3A    0.900000E-01   1.00800           0   0.00000       0.00000    
     22340 BUTH     359      BUTH     H3       HDA3A    0.900000E-01   1.00800           0   0.00000       0.00000    
     22341 BUTH     359      BUTH     H4       HDA2A    0.900000E-01   1.00800           0   0.00000       0.00000    
     22342 BUTH     359      BUTH     H5       HDA2A    0.900000E-01   1.00800           0   0.00000       0.00000    
     22343 BUTH     359      BUTH     H6       HDA2A    0.900000E-01   1.00800           0   0.00000       0.00000    
     22344 BUTH     359      BUTH     H7       HDA2A    0.900000E-01   1.00800           0   0.00000       0.00000    
     22345 BUTH     359      BUTH     H8       HDP1A    0.430000       1.00800           0   0.00000       0.00000    
     22346 BUTH     359      BUTH     H9       DUMH      0.00000       1.00800           0   0.00000       0.00000    
     22347 BUTH     359      BUTH     LPO11    LPDO1   -0.287000       0.00000          -1   0.00000       0.00000    
     22348 BUTH     359      BUTH     LPO12    LPDO1   -0.288000       0.00000          -1   0.00000       0.00000    
     22349 BUTH     359      BUTH     LPO21    LPD     -0.302000       0.00000          -1   0.00000       0.00000    
     22350 BUTH     359      BUTH     LPO22    LPD     -0.303000       0.00000          -1   0.00000       0.00000    
     22351 BUTH     360      BUTH     C1       CD33A     2.05990       11.6110           0  -1.81190       1.18670    
     22352 BUTH     360      BUTH     DC1      DRUD     -2.33590      0.400000           0   0.00000       0.00000    
     22353 BUTH     360      BUTH     C2       CD32A     2.02070       11.6110           0  -1.59660       1.16930    
     22354 BUTH     360      BUTH     DC2      DRUD     -2.19270      0.400000           0   0.00000       0.00000    
     22355 BUTH     360      BUTH     C3       CD32A     1.98270       11.6110           0  -1.59660       1.16930    
     22356 BUTH     360      BUTH     DC3      DRUD     -2.19270      0.400000           0   0.00000       0.00000    
     22357 BUTH     360      BUTH     C4       CD2O3A    2.72690       11.6110           0  -1.26130       1.05430    
     22358 BUTH     360      BUTH     DC4      DRUD     -1.94890      0.400000           0   0.00000       0.00000    
     22359 BUTH     360      BUTH     O1       OD2C1A    1.46540       15.5994           0 -0.713100      0.569800    
     22360 BUTH     360      BUTH     DO1      DRUD     -1.46540      0.400000           0   0.00000       0.00000    
     22361 BUTH     360      BUTH     O2       OD31A     1.58240       15.5990           0 -0.831500      0.749400    
     22362 BUTH     360      BUTH     DO2      DRUD     -1.58240      0.400000           0   0.00000       0.00000    
     22363 BUTH     360      BUTH     H1       HDA3A    0.900000E-01   1.00800           0   0.00000       0.00000    
     22364 BUTH     360      BUTH     H2       HDA3A    0.900000E-01   1.00800           0   0.00000       0.00000    
     22365 BUTH     360      BUTH     H3       HDA3A    0.900000E-01   1.00800           0   0.00000       0.00000    
     22366 BUTH     360      BUTH     H4       HDA2A    0.900000E-01   1.00800           0   0.00000       0.00000    
     22367 BUTH     360      BUTH     H5       HDA2A    0.900000E-01   1.00800           0   0.00000       0.00000    
     22368 BUTH     360      BUTH     H6       HDA2A    0.900000E-01   1.00800           0   0.00000       0.00000    
     22369 BUTH     360      BUTH     H7       HDA2A    0.900000E-01   1.00800           0   0.00000       0.00000    
     22370 BUTH     360      BUTH     H8       HDP1A    0.430000       1.00800           0   0.00000       0.00000    
     22371 BUTH     360      BUTH     H9       DUMH      0.00000       1.00800           0   0.00000       0.00000    
     22372 BUTH     360      BUTH     LPO11    LPDO1   -0.287000       0.00000          -1   0.00000       0.00000    
     22373 BUTH     360      BUTH     LPO12    LPDO1   -0.288000       0.00000          -1   0.00000       0.00000    
     22374 BUTH     360      BUTH     LPO21    LPD     -0.302000       0.00000          -1   0.00000       0.00000    
     22375 BUTH     360      BUTH     LPO22    LPD     -0.303000       0.00000          -1   0.00000       0.00000    
     22376 BUTH     361      BUTH     C1       CD33A     2.05990       11.6110           0  -1.81190       1.18670    
     22377 BUTH     361      BUTH     DC1      DRUD     -2.33590      0.400000           0   0.00000       0.00000    
     22378 BUTH     361      BUTH     C2       CD32A     2.02070       11.6110           0  -1.59660       1.16930    
     22379 BUTH     361      BUTH     DC2      DRUD     -2.19270      0.400000           0   0.00000       0.00000    
     22380 BUTH     361      BUTH     C3       CD32A     1.98270       11.6110           0  -1.59660       1.16930    
     22381 BUTH     361      BUTH     DC3      DRUD     -2.19270      0.400000           0   0.00000       0.00000    
     22382 BUTH     361      BUTH     C4       CD2O3A    2.72690       11.6110           0  -1.26130       1.05430    
     22383 BUTH     361      BUTH     DC4      DRUD     -1.94890      0.400000           0   0.00000       0.00000    
     22384 BUTH     361      BUTH     O1       OD2C1A    1.46540       15.5994           0 -0.713100      0.569800    
     22385 BUTH     361      BUTH     DO1      DRUD     -1.46540      0.400000           0   0.00000       0.00000    
     22386 BUTH     361      BUTH     O2       OD31A     1.58240       15.5990           0 -0.831500      0.749400    
     22387 BUTH     361      BUTH     DO2      DRUD     -1.58240      0.400000           0   0.00000       0.00000    
     22388 BUTH     361      BUTH     H1       HDA3A    0.900000E-01   1.00800           0   0.00000       0.00000    
     22389 BUTH     361      BUTH     H2       HDA3A    0.900000E-01   1.00800           0   0.00000       0.00000    
     22390 BUTH     361      BUTH     H3       HDA3A    0.900000E-01   1.00800           0   0.00000       0.00000    
     22391 BUTH     361      BUTH     H4       HDA2A    0.900000E-01   1.00800           0   0.00000       0.00000    
     22392 BUTH     361      BUTH     H5       HDA2A    0.900000E-01   1.00800           0   0.00000       0.00000    
     22393 BUTH     361      BUTH     H6       HDA2A    0.900000E-01   1.00800           0   0.00000       0.00000    
     22394 BUTH     361      BUTH     H7       HDA2A    0.900000E-01   1.00800           0   0.00000       0.00000    
     22395 BUTH     361      BUTH     H8       HDP1A    0.430000       1.00800           0   0.00000       0.00000    
     22396 BUTH     361      BUTH     H9       DUMH      0.00000       1.00800           0   0.00000       0.00000    
     22397 BUTH     361      BUTH     LPO11    LPDO1   -0.287000       0.00000          -1   0.00000       0.00000    
     22398 BUTH     361      BUTH     LPO12    LPDO1   -0.288000       0.00000          -1   0.00000       0.00000    
     22399 BUTH     361      BUTH     LPO21    LPD     -0.302000       0.00000          -1   0.00000       0.00000    
     22400 BUTH     361      BUTH     LPO22    LPD     -0.303000       0.00000          -1   0.00000       0.00000    
     22401 BUTH     362      BUTH     C1       CD33A     2.05990       11.6110           0  -1.81190       1.18670    
     22402 BUTH     362      BUTH     DC1      DRUD     -2.33590      0.400000           0   0.00000       0.00000    
     22403 BUTH     362      BUTH     C2       CD32A     2.02070       11.6110           0  -1.59660       1.16930    
     22404 BUTH     362      BUTH     DC2      DRUD     -2.19270      0.400000           0   0.00000       0.00000    
     22405 BUTH     362      BUTH     C3       CD32A     1.98270       11.6110           0  -1.59660       1.16930    
     22406 BUTH     362      BUTH     DC3      DRUD     -2.19270      0.400000           0   0.00000       0.00000    
     22407 BUTH     362      BUTH     C4       CD2O3A    2.72690       11.6110           0  -1.26130       1.05430    
     22408 BUTH     362      BUTH     DC4      DRUD     -1.94890      0.400000           0   0.00000       0.00000    
     22409 BUTH     362      BUTH     O1       OD2C1A    1.46540       15.5994           0 -0.713100      0.569800    
     22410 BUTH     362      BUTH     DO1      DRUD     -1.46540      0.400000           0   0.00000       0.00000    
     22411 BUTH     362      BUTH     O2       OD31A     1.58240       15.5990           0 -0.831500      0.749400    
     22412 BUTH     362      BUTH     DO2      DRUD     -1.58240      0.400000           0   0.00000       0.00000    
     22413 BUTH     362      BUTH     H1       HDA3A    0.900000E-01   1.00800           0   0.00000       0.00000    
     22414 BUTH     362      BUTH     H2       HDA3A    0.900000E-01   1.00800           0   0.00000       0.00000    
     22415 BUTH     362      BUTH     H3       HDA3A    0.900000E-01   1.00800           0   0.00000       0.00000    
     22416 BUTH     362      BUTH     H4       HDA2A    0.900000E-01   1.00800           0   0.00000       0.00000    
     22417 BUTH     362      BUTH     H5       HDA2A    0.900000E-01   1.00800           0   0.00000       0.00000    
     22418 BUTH     362      BUTH     H6       HDA2A    0.900000E-01   1.00800           0   0.00000       0.00000    
     22419 BUTH     362      BUTH     H7       HDA2A    0.900000E-01   1.00800           0   0.00000       0.00000    
     22420 BUTH     362      BUTH     H8       HDP1A    0.430000       1.00800           0   0.00000       0.00000    
     22421 BUTH     362      BUTH     H9       DUMH      0.00000       1.00800           0   0.00000       0.00000    
     22422 BUTH     362      BUTH     LPO11    LPDO1   -0.287000       0.00000          -1   0.00000       0.00000    
     22423 BUTH     362      BUTH     LPO12    LPDO1   -0.288000       0.00000          -1   0.00000       0.00000    
     22424 BUTH     362      BUTH     LPO21    LPD     -0.302000       0.00000          -1   0.00000       0.00000    
     22425 BUTH     362      BUTH     LPO22    LPD     -0.303000       0.00000          -1   0.00000       0.00000    
     22426 BUTH     363      BUTH     C1       CD33A     2.05990       11.6110           0  -1.81190       1.18670    
     22427 BUTH     363      BUTH     DC1      DRUD     -2.33590      0.400000           0   0.00000       0.00000    
     22428 BUTH     363      BUTH     C2       CD32A     2.02070       11.6110           0  -1.59660       1.16930    
     22429 BUTH     363      BUTH     DC2      DRUD     -2.19270      0.400000           0   0.00000       0.00000    
     22430 BUTH     363      BUTH     C3       CD32A     1.98270       11.6110           0  -1.59660       1.16930    
     22431 BUTH     363      BUTH     DC3      DRUD     -2.19270      0.400000           0   0.00000       0.00000    
     22432 BUTH     363      BUTH     C4       CD2O3A    2.72690       11.6110           0  -1.26130       1.05430    
     22433 BUTH     363      BUTH     DC4      DRUD     -1.94890      0.400000           0   0.00000       0.00000    
     22434 BUTH     363      BUTH     O1       OD2C1A    1.46540       15.5994           0 -0.713100      0.569800    
     22435 BUTH     363      BUTH     DO1      DRUD     -1.46540      0.400000           0   0.00000       0.00000    
     22436 BUTH     363      BUTH     O2       OD31A     1.58240       15.5990           0 -0.831500      0.749400    
     22437 BUTH     363      BUTH     DO2      DRUD     -1.58240      0.400000           0   0.00000       0.00000    
     22438 BUTH     363      BUTH     H1       HDA3A    0.900000E-01   1.00800           0   0.00000       0.00000    
     22439 BUTH     363      BUTH     H2       HDA3A    0.900000E-01   1.00800           0   0.00000       0.00000    
     22440 BUTH     363      BUTH     H3       HDA3A    0.900000E-01   1.00800           0   0.00000       0.00000    
     22441 BUTH     363      BUTH     H4       HDA2A    0.900000E-01   1.00800           0   0.00000       0.00000    
     22442 BUTH     363      BUTH     H5       HDA2A    0.900000E-01   1.00800           0   0.00000       0.00000    
     22443 BUTH     363      BUTH     H6       HDA2A    0.900000E-01   1.00800           0   0.00000       0.00000    
     22444 BUTH     363      BUTH     H7       HDA2A    0.900000E-01   1.00800           0   0.00000       0.00000    
     22445 BUTH     363      BUTH     H8       HDP1A    0.430000       1.00800           0   0.00000       0.00000    
     22446 BUTH     363      BUTH     H9       DUMH      0.00000       1.00800           0   0.00000       0.00000    
     22447 BUTH     363      BUTH     LPO11    LPDO1   -0.287000       0.00000          -1   0.00000       0.00000    
     22448 BUTH     363      BUTH     LPO12    LPDO1   -0.288000       0.00000          -1   0.00000       0.00000    
     22449 BUTH     363      BUTH     LPO21    LPD     -0.302000       0.00000          -1   0.00000       0.00000    
     22450 BUTH     363      BUTH     LPO22    LPD     -0.303000       0.00000          -1   0.00000       0.00000    
     22451 BUTH     364      BUTH     C1       CD33A     2.05990       11.6110           0  -1.81190       1.18670    
     22452 BUTH     364      BUTH     DC1      DRUD     -2.33590      0.400000           0   0.00000       0.00000    
     22453 BUTH     364      BUTH     C2       CD32A     2.02070       11.6110           0  -1.59660       1.16930    
     22454 BUTH     364      BUTH     DC2      DRUD     -2.19270      0.400000           0   0.00000       0.00000    
     22455 BUTH     364      BUTH     C3       CD32A     1.98270       11.6110           0  -1.59660       1.16930    
     22456 BUTH     364      BUTH     DC3      DRUD     -2.19270      0.400000           0   0.00000       0.00000    
     22457 BUTH     364      BUTH     C4       CD2O3A    2.72690       11.6110           0  -1.26130       1.05430    
     22458 BUTH     364      BUTH     DC4      DRUD     -1.94890      0.400000           0   0.00000       0.00000    
     22459 BUTH     364      BUTH     O1       OD2C1A    1.46540       15.5994           0 -0.713100      0.569800    
     22460 BUTH     364      BUTH     DO1      DRUD     -1.46540      0.400000           0   0.00000       0.00000    
     22461 BUTH     364      BUTH     O2       OD31A     1.58240       15.5990           0 -0.831500      0.749400    
     22462 BUTH     364      BUTH     DO2      DRUD     -1.58240      0.400000           0   0.00000       0.00000    
     22463 BUTH     364      BUTH     H1       HDA3A    0.900000E-01   1.00800           0   0.00000       0.00000    
     22464 BUTH     364      BUTH     H2       HDA3A    0.900000E-01   1.00800           0   0.00000       0.00000    
     22465 BUTH     364      BUTH     H3       HDA3A    0.900000E-01   1.00800           0   0.00000       0.00000    
     22466 BUTH     364      BUTH     H4       HDA2A    0.900000E-01   1.00800           0   0.00000       0.00000    
     22467 BUTH     364      BUTH     H5       HDA2A    0.900000E-01   1.00800           0   0.00000       0.00000    
     22468 BUTH     364      BUTH     H6       HDA2A    0.900000E-01   1.00800           0   0.00000       0.00000    
     22469 BUTH     364      BUTH     H7       HDA2A    0.900000E-01   1.00800           0   0.00000       0.00000    
     22470 BUTH     364      BUTH     H8       HDP1A    0.430000       1.00800           0   0.00000       0.00000    
     22471 BUTH     364      BUTH     H9       DUMH      0.00000       1.00800           0   0.00000       0.00000    
     22472 BUTH     364      BUTH     LPO11    LPDO1   -0.287000       0.00000          -1   0.00000       0.00000    
     22473 BUTH     364      BUTH     LPO12    LPDO1   -0.288000       0.00000          -1   0.00000       0.00000    
     22474 BUTH     364      BUTH     LPO21    LPD     -0.302000       0.00000          -1   0.00000       0.00000    
     22475 BUTH     364      BUTH     LPO22    LPD     -0.303000       0.00000          -1   0.00000       0.00000    
     22476 BUTH     365      BUTH     C1       CD33A     2.05990       11.6110           0  -1.81190       1.18670    
     22477 BUTH     365      BUTH     DC1      DRUD     -2.33590      0.400000           0   0.00000       0.00000    
     22478 BUTH     365      BUTH     C2       CD32A     2.02070       11.6110           0  -1.59660       1.16930    
     22479 BUTH     365      BUTH     DC2      DRUD     -2.19270      0.400000           0   0.00000       0.00000    
     22480 BUTH     365      BUTH     C3       CD32A     1.98270       11.6110           0  -1.59660       1.16930    
     22481 BUTH     365      BUTH     DC3      DRUD     -2.19270      0.400000           0   0.00000       0.00000    
     22482 BUTH     365      BUTH     C4       CD2O3A    2.72690       11.6110           0  -1.26130       1.05430    
     22483 BUTH     365      BUTH     DC4      DRUD     -1.94890      0.400000           0   0.00000       0.00000    
     22484 BUTH     365      BUTH     O1       OD2C1A    1.46540       15.5994           0 -0.713100      0.569800    
     22485 BUTH     365      BUTH     DO1      DRUD     -1.46540      0.400000           0   0.00000       0.00000    
     22486 BUTH     365      BUTH     O2       OD31A     1.58240       15.5990           0 -0.831500      0.749400    
     22487 BUTH     365      BUTH     DO2      DRUD     -1.58240      0.400000           0   0.00000       0.00000    
     22488 BUTH     365      BUTH     H1       HDA3A    0.900000E-01   1.00800           0   0.00000       0.00000    
     22489 BUTH     365      BUTH     H2       HDA3A    0.900000E-01   1.00800           0   0.00000       0.00000    
     22490 BUTH     365      BUTH     H3       HDA3A    0.900000E-01   1.00800           0   0.00000       0.00000    
     22491 BUTH     365      BUTH     H4       HDA2A    0.900000E-01   1.00800           0   0.00000       0.00000    
     22492 BUTH     365      BUTH     H5       HDA2A    0.900000E-01   1.00800           0   0.00000       0.00000    
     22493 BUTH     365      BUTH     H6       HDA2A    0.900000E-01   1.00800           0   0.00000       0.00000    
     22494 BUTH     365      BUTH     H7       HDA2A    0.900000E-01   1.00800           0   0.00000       0.00000    
     22495 BUTH     365      BUTH     H8       HDP1A    0.430000       1.00800           0   0.00000       0.00000    
     22496 BUTH     365      BUTH     H9       DUMH      0.00000       1.00800           0   0.00000       0.00000    
     22497 BUTH     365      BUTH     LPO11    LPDO1   -0.287000       0.00000          -1   0.00000       0.00000    
     22498 BUTH     365      BUTH     LPO12    LPDO1   -0.288000       0.00000          -1   0.00000       0.00000    
     22499 BUTH     365      BUTH     LPO21    LPD     -0.302000       0.00000          -1   0.00000       0.00000    
     22500 BUTH     365      BUTH     LPO22    LPD     -0.303000       0.00000          -1   0.00000       0.00000    

     22000 !NBOND: bonds
         1         2         6         7         8         9        11        12
        14        15        17        18         1         6         1         3
         1         4         1         5         6         8         6        14
         8        11         8        10        11        13        11        17
        17        14        14        16        17        19        20        17
        21        22        26        27        28        29        31        32
        34        35        37        38        21        26        21        23
        21        24        21        25        26        28        26        34
        28        31        28        30        31        33        31        37
        37        34        34        36        37        39        40        37
        41        42        46        47        48        49        51        52
        54        55        57        58        41        46        41        43
        41        44        41        45        46        48        46        54
        48        51        48        50        51        53        51        57
        57        54        54        56        57        59        60        57
        61        62        66        67        68        69        71        72
        74        75        77        78        61        66        61        63
        61        64        61        65        66        68        66        74
        68        71        68        70        71        73        71        77
        77        74        74        76        77        79        80        77
        81        82        86        87        88        89        91        92
        94        95        97        98        81        86        81        83
        81        84        81        85        86        88        86        94
        88        91        88        90        91        93        91        97
        97        94        94        96        97        99       100        97
       101       102       106       107       108       109       111       112
       114       115       117       118       101       106       101       103
       101       104       101       105       106       108       106       114
       108       111       108       110       111       113       111       117
       117       114       114       116       117       119       120       117
       121       122       126       127       128       129       131       132
       134       135       137       138       121       126       121       123
       121       124       121       125       126       128       126       134
       128       131       128       130       131       133       131       137
       137       134       134       136       137       139       140       137
       141       142       146       147       148       149       151       152
       154       155       157       158       141       146       141       143
       141       144       141       145       146       148       146       154
       148       151       148       150       151       153       151       157
       157       154       154       156       157       159       160       157
       161       162       166       167       168       169       171       172
       174       175       177       178       161       166       161       163
       161       164       161       165       166       168       166       174
       168       171       168       170       171       173       171       177
       177       174       174       176       177       179       180       177
       181       182       186       187       188       189       191       192
       194       195       197       198       181       186       181       183
       181       184       181       185       186       188       186       194
       188       191       188       190       191       193       191       197
       197       194       194       196       197       199       200       197
       201       202       206       207       208       209       211       212
       214       215       217       218       201       206       201       203
       201       204       201       205       206       208       206       214
       208       211       208       210       211       213       211       217
       217       214       214       216       217       219       220       217
       221       222       226       227       228       229       231       232
       234       235       237       238       221       226       221       223
       221       224       221       225       226       228       226       234
       228       231       228       230       231       233       231       237
       237       234       234       236       237       239       240       237
       241       242       246       247       248       249       251       252
       254       255       257       258       241       246       241       243
       241       244       241       245       246       248       246       254
       248       251       248       250       251       253       251       257
       257       254       254       256       257       259       260       257
       261       262       266       267       268       269       271       272
       274       275       277       278       261       266       261       263
       261       264       261       265       266       268       266       274
       268       271       268       270       271       273       271       277
       277       274       274       276       277       279       280       277
       281       282       286       287       288       289       291       292
       294       295       297       298       281       286       281       283
       281       284       281       285       286       288       286       294
       288       291       288       290       291       293       291       297
       297       294       294       296       297       299       300       297
       301       302       306       307       308       309       311       312
       314       315       317       318       301       306       301       303
       301       304       301       305       306       308       306       314
       308       311       308       310       311       313       311       317
       317       314       314       316       317       319       320       317
       321       322       326       327       328       329       331       332
       334       335       337       338       321       326       321       323
       321       324       321       325       326       328       326       334
       328       331       328       330       331       333       331       337
       337       334       334       336       337       339       340       337
       341       342       346       347       348       349       351       352
       354       355       357       358       341       346       341       343
       341       344       341       345       346       348       346       354
       348       351       348       350       351       353       351       357
       357       354       354       356       357       359       360       357
       361       362       366       367       368       369       371       372
       374       375       377       378       361       366       361       363
       361       364       361       365       366       368       366       374
       368       371       368       370       371       373       371       377
       377       374       374       376       377       379       380       377
       381       382       386       387       388       389       391       392
       394       395       397       398       381       386       381       383
       381       384       381       385       386       388       386       394
       388       391       388       390       391       393       391       397
       397       394       394       396       397       399       400       397
       401       402       406       407       408       409       411       412
       414       415       417       418       401       406       401       403
       401       404       401       405       406       408       406       414
       408       411       408       410       411       413       411       417
       417       414       414       416       417       419       420       417
       421       422       426       427       428       429       431       432
       434       435       437       438       421       426       421       423
       421       424       421       425       426       428       426       434
       428       431       428       430       431       433       431       437
       437       434       434       436       437       439       440       437
       441       442       446       447       448       449       451       452
       454       455       457       458       441       446       441       443
       441       444       441       445       446       448       446       454
       448       451       448       450       451       453       451       457
       457       454       454       456       457       459       460       457
       461       462       466       467       468       469       471       472
       474       475       477       478       461       466       461       463
       461       464       461       465       466       468       466       474
       468       471       468       470       471       473       471       477
       477       474       474       476       477       479       480       477
       481       482       486       487       488       489       491       492
       494       495       497       498       481       486       481       483
       481       484       481       485       486       488       486       494
       488       491       488       490       491       493       491       497
       497       494       494       496       497       499       500       497
       501       502       506       507       508       509       511       512
       514       515       517       518       501       506       501       503
       501       504       501       505       506       508       506       514
       508       511       508       510       511       513       511       517
       517       514       514       516       517       519       520       517
       521       522       526       527       528       529       531       532
       534       535       537       538       521       526       521       523
       521       524       521       525       526       528       526       534
       528       531       528       530       531       533       531       537
       537       534       534       536       537       539       540       537
       541       542       546       547       548       549       551       552
       554       555       557       558       541       546       541       543
       541       544       541       545       546       548       546       554
       548       551       548       550       551       553       551       557
       557       554       554       556       557       559       560       557
       561       562       566       567       568       569       571       572
       574       575       577       578       561       566       561       563
       561       564       561       565       566       568       566       574
       568       571       568       570       571       573       571       577
       577       574       574       576       577       579       580       577
       581       582       586       587       588       589       591       592
       594       595       597       598       581       586       581       583
       581       584       581       585       586       588       586       594
       588       591       588       590       591       593       591       597
       597       594       594       596       597       599       600       597
       601       602       606       607       608       609       611       612
       614       615       617       618       601       606       601       603
       601       604       601       605       606       608       606       614
       608       611       608       610       611       613       611       617
       617       614       614       616       617       619       620       617
       621       622       626       627       628       629       631       632
       634       635       637       638       621       626       621       623
       621       624       621       625       626       628       626       634
       628       631       628       630       631       633       631       637
       637       634       634       636       637       639       640       637
       641       642       646       647       648       649       651       652
       654       655       657       658       641       646       641       643
       641       644       641       645       646       648       646       654
       648       651       648       650       651       653       651       657
       657       654       654       656       657       659       660       657
       661       662       666       667       668       669       671       672
       674       675       677       678       661       666       661       663
       661       664       661       665       666       668       666       674
       668       671       668       670       671       673       671       677
       677       674       674       676       677       679       680       677
       681       682       686       687       688       689       691       692
       694       695       697       698       681       686       681       683
       681       684       681       685       686       688       686       694
       688       691       688       690       691       693       691       697
       697       694       694       696       697       699       700       697
       701       702       706       707       708       709       711       712
       714       715       717       718       701       706       701       703
       701       704       701       705       706       708       706       714
       708       711       708       710       711       713       711       717
       717       714       714       716       717       719       720       717
       721       722       726       727       728       729       731       732
       734       735       737       738       721       726       721       723
       721       724       721       725       726       728       726       734
       728       731       728       730       731       733       731       737
       737       734       734       736       737       739       740       737
       741       742       746       747       748       749       751       752
       754       755       757       758       741       746       741       743
       741       744       741       745       746       748       746       754
       748       751       748       750       751       753       751       757
       757       754       754       756       757       759       760       757
       761       762       766       767       768       769       771       772
       774       775       777       778       761       766       761       763
       761       764       761       765       766       768       766       774
       768       771       768       770       771       773       771       777
       777       774       774       776       777       779       780       777
       781       782       786       787       788       789       791       792
       794       795       797       798       781       786       781       783
       781       784       781       785       786       788       786       794
       788       791       788       790       791       793       791       797
       797       794       794       796       797       799       800       797
       801       802       806       807       808       809       811       812
       814       815       817       818       801       806       801       803
       801       804       801       805       806       808       806       814
       808       811       808       810       811       813       811       817
       817       814       814       816       817       819       820       817
       821       822       826       827       828       829       831       832
       834       835       837       838       821       826       821       823
       821       824       821       825       826       828       826       834
       828       831       828       830       831       833       831       837
       837       834       834       836       837       839       840       837
       841       842       846       847       848       849       851       852
       854       855       857       858       841       846       841       843
       841       844       841       845       846       848       846       854
       848       851       848       850       851       853       851       857
       857       854       854       856       857       859       860       857
       861       862       866       867       868       869       871       872
       874       875       877       878       861       866       861       863
       861       864       861       865       866       868       866       874
       868       871       868       870       871       873       871       877
       877       874       874       876       877       879       880       877
       881       882       886       887       888       889       891       892
       894       895       897       898       881       886       881       883
       881       884       881       885       886       888       886       894
       888       891       888       890       891       893       891       897
       897       894       894       896       897       899       900       897
       901       902       906       907       908       909       911       912
       914       915       917       918       901       906       901       903
       901       904       901       905       906       908       906       914
       908       911       908       910       911       913       911       917
       917       914       914       916       917       919       920       917
       921       922       926       927       928       929       931       932
       934       935       937       938       921       926       921       923
       921       924       921       925       926       928       926       934
       928       931       928       930       931       933       931       937
       937       934       934       936       937       939       940       937
       941       942       946       947       948       949       951       952
       954       955       957       958       941       946       941       943
       941       944       941       945       946       948       946       954
       948       951       948       950       951       953       951       957
       957       954       954       956       957       959       960       957
       961       962       966       967       968       969       971       972
       974       975       977       978       961       966       961       963
       961       964       961       965       966       968       966       974
       968       971       968       970       971       973       971       977
       977       974       974       976       977       979       980       977
       981       982       986       987       988       989       991       992
       994       995       997       998       981       986       981       983
       981       984       981       985       986       988       986       994
       988       991       988       990       991       993       991       997
       997       994       994       996       997       999      1000       997
      1001      1002      1006      1007      1008      1009      1011      1012
      1014      1015      1017      1018      1001      1006      1001      1003
      1001      1004      1001      1005      1006      1008      1006      1014
      1008      1011      1008      1010      1011      1013      1011      1017
      1017      1014      1014      1016      1017      1019      1020      1017
      1021      1022      1026      1027      1028      1029      1031      1032
      1034      1035      1037      1038      1021      1026      1021      1023
      1021      1024      1021      1025      1026      1028      1026      1034
      1028      1031      1028      1030      1031      1033      1031      1037
      1037      1034      1034      1036      1037      1039      1040      1037
      1041      1042      1046      1047      1048      1049      1051      1052
      1054      1055      1057      1058      1041      1046      1041      1043
      1041      1044      1041      1045      1046      1048      1046      1054
      1048      1051      1048      1050      1051      1053      1051      1057
      1057      1054      1054      1056      1057      1059      1060      1057
      1061      1062      1066      1067      1068      1069      1071      1072
      1074      1075      1077      1078      1061      1066      1061      1063
      1061      1064      1061      1065      1066      1068      1066      1074
      1068      1071      1068      1070      1071      1073      1071      1077
      1077      1074      1074      1076      1077      1079      1080      1077
      1081      1082      1086      1087      1088      1089      1091      1092
      1094      1095      1097      1098      1081      1086      1081      1083
      1081      1084      1081      1085      1086      1088      1086      1094
      1088      1091      1088      1090      1091      1093      1091      1097
      1097      1094      1094      1096      1097      1099      1100      1097
      1101      1102      1106      1107      1108      1109      1111      1112
      1114      1115      1117      1118      1101      1106      1101      1103
      1101      1104      1101      1105      1106      1108      1106      1114
      1108      1111      1108      1110      1111      1113      1111      1117
      1117      1114      1114      1116      1117      1119      1120      1117
      1121      1122      1126      1127      1128      1129      1131      1132
      1134      1135      1137      1138      1121      1126      1121      1123
      1121      1124      1121      1125      1126      1128      1126      1134
      1128      1131      1128      1130      1131      1133      1131      1137
      1137      1134      1134      1136      1137      1139      1140      1137
      1141      1142      1146      1147      1148      1149      1151      1152
      1154      1155      1157      1158      1141      1146      1141      1143
      1141      1144      1141      1145      1146      1148      1146      1154
      1148      1151      1148      1150      1151      1153      1151      1157
      1157      1154      1154      1156      1157      1159      1160      1157
      1161      1162      1166      1167      1168      1169      1171      1172
      1174      1175      1177      1178      1161      1166      1161      1163
      1161      1164      1161      1165      1166      1168      1166      1174
      1168      1171      1168      1170      1171      1173      1171      1177
      1177      1174      1174      1176      1177      1179      1180      1177
      1181      1182      1186      1187      1188      1189      1191      1192
      1194      1195      1197      1198      1181      1186      1181      1183
      1181      1184      1181      1185      1186      1188      1186      1194
      1188      1191      1188      1190      1191      1193      1191      1197
      1197      1194      1194      1196      1197      1199      1200      1197
      1201      1202      1206      1207      1208      1209      1211      1212
      1214      1215      1217      1218      1201      1206      1201      1203
      1201      1204      1201      1205      1206      1208      1206      1214
      1208      1211      1208      1210      1211      1213      1211      1217
      1217      1214      1214      1216      1217      1219      1220      1217
      1221      1222      1226      1227      1228      1229      1231      1232
      1234      1235      1237      1238      1221      1226      1221      1223
      1221      1224      1221      1225      1226      1228      1226      1234
      1228      1231      1228      1230      1231      1233      1231      1237
      1237      1234      1234      1236      1237      1239      1240      1237
      1241      1242      1246      1247      1248      1249      1251      1252
      1254      1255      1257      1258      1241      1246      1241      1243
      1241      1244      1241      1245      1246      1248      1246      1254
      1248      1251      1248      1250      1251      1253      1251      1257
      1257      1254      1254      1256      1257      1259      1260      1257
      1261      1262      1266      1267      1268      1269      1271      1272
      1274      1275      1277      1278      1261      1266      1261      1263
      1261      1264      1261      1265      1266      1268      1266      1274
      1268      1271      1268      1270      1271      1273      1271      1277
      1277      1274      1274      1276      1277      1279      1280      1277
      1281      1282      1286      1287      1288      1289      1291      1292
      1294      1295      1297      1298      1281      1286      1281      1283
      1281      1284      1281      1285      1286      1288      1286      1294
      1288      1291      1288      1290      1291      1293      1291      1297
      1297      1294      1294      1296      1297      1299      1300      1297
      1301      1302      1306      1307      1308      1309      1311      1312
      1314      1315      1317      1318      1301      1306      1301      1303
      1301      1304      1301      1305      1306      1308      1306      1314
      1308      1311      1308      1310      1311      1313      1311      1317
      1317      1314      1314      1316      1317      1319      1320      1317
      1321      1322      1326      1327      1328      1329      1331      1332
      1334      1335      1337      1338      1321      1326      1321      1323
      1321      1324      1321      1325      1326      1328      1326      1334
      1328      1331      1328      1330      1331      1333      1331      1337
      1337      1334      1334      1336      1337      1339      1340      1337
      1341      1342      1346      1347      1348      1349      1351      1352
      1354      1355      1357      1358      1341      1346      1341      1343
      1341      1344      1341      1345      1346      1348      1346      1354
      1348      1351      1348      1350      1351      1353      1351      1357
      1357      1354      1354      1356      1357      1359      1360      1357
      1361      1362      1366      1367      1368      1369      1371      1372
      1374      1375      1377      1378      1361      1366      1361      1363
      1361      1364      1361      1365      1366      1368      1366      1374
      1368      1371      1368      1370      1371      1373      1371      1377
      1377      1374      1374      1376      1377      1379      1380      1377
      1381      1382      1386      1387      1388      1389      1391      1392
      1394      1395      1397      1398      1381      1386      1381      1383
      1381      1384      1381      1385      1386      1388      1386      1394
      1388      1391      1388      1390      1391      1393      1391      1397
      1397      1394      1394      1396      1397      1399      1400      1397
      1401      1402      1406      1407      1408      1409      1411      1412
      1414      1415      1417      1418      1401      1406      1401      1403
      1401      1404      1401      1405      1406      1408      1406      1414
      1408      1411      1408      1410      1411      1413      1411      1417
      1417      1414      1414      1416      1417      1419      1420      1417
      1421      1422      1426      1427      1428      1429      1431      1432
      1434      1435      1437      1438      1421      1426      1421      1423
      1421      1424      1421      1425      1426      1428      1426      1434
      1428      1431      1428      1430      1431      1433      1431      1437
      1437      1434      1434      1436      1437      1439      1440      1437
      1441      1442      1446      1447      1448      1449      1451      1452
      1454      1455      1457      1458      1441      1446      1441      1443
      1441      1444      1441      1445      1446      1448      1446      1454
      1448      1451      1448      1450      1451      1453      1451      1457
      1457      1454      1454      1456      1457      1459      1460      1457
      1461      1462      1466      1467      1468      1469      1471      1472
      1474      1475      1477      1478      1461      1466      1461      1463
      1461      1464      1461      1465      1466      1468      1466      1474
      1468      1471      1468      1470      1471      1473      1471      1477
      1477      1474      1474      1476      1477      1479      1480      1477
      1481      1482      1486      1487      1488      1489      1491      1492
      1494      1495      1497      1498      1481      1486      1481      1483
      1481      1484      1481      1485      1486      1488      1486      1494
      1488      1491      1488      1490      1491      1493      1491      1497
      1497      1494      1494      1496      1497      1499      1500      1497
      1501      1502      1506      1507      1508      1509      1511      1512
      1514      1515      1517      1518      1501      1506      1501      1503
      1501      1504      1501      1505      1506      1508      1506      1514
      1508      1511      1508      1510      1511      1513      1511      1517
      1517      1514      1514      1516      1517      1519      1520      1517
      1521      1522      1526      1527      1528      1529      1531      1532
      1534      1535      1537      1538      1521      1526      1521      1523
      1521      1524      1521      1525      1526      1528      1526      1534
      1528      1531      1528      1530      1531      1533      1531      1537
      1537      1534      1534      1536      1537      1539      1540      1537
      1541      1542      1546      1547      1548      1549      1551      1552
      1554      1555      1557      1558      1541      1546      1541      1543
      1541      1544      1541      1545      1546      1548      1546      1554
      1548      1551      1548      1550      1551      1553      1551      1557
      1557      1554      1554      1556      1557      1559      1560      1557
      1561      1562      1566      1567      1568      1569      1571      1572
      1574      1575      1577      1578      1561      1566      1561      1563
      1561      1564      1561      1565      1566      1568      1566      1574
      1568      1571      1568      1570      1571      1573      1571      1577
      1577      1574      1574      1576      1577      1579      1580      1577
      1581      1582      1586      1587      1588      1589      1591      1592
      1594      1595      1597      1598      1581      1586      1581      1583
      1581      1584      1581      1585      1586      1588      1586      1594
      1588      1591      1588      1590      1591      1593      1591      1597
      1597      1594      1594      1596      1597      1599      1600      1597
      1601      1602      1606      1607      1608      1609      1611      1612
      1614      1615      1617      1618      1601      1606      1601      1603
      1601      1604      1601      1605      1606      1608      1606      1614
      1608      1611      1608      1610      1611      1613      1611      1617
      1617      1614      1614      1616      1617      1619      1620      1617
      1621      1622      1626      1627      1628      1629      1631      1632
      1634      1635      1637      1638      1621      1626      1621      1623
      1621      1624      1621      1625      1626      1628      1626      1634
      1628      1631      1628      1630      1631      1633      1631      1637
      1637      1634      1634      1636      1637      1639      1640      1637
      1641      1642      1646      1647      1648      1649      1651      1652
      1654      1655      1657      1658      1641      1646      1641      1643
      1641      1644      1641      1645      1646      1648      1646      1654
      1648      1651      1648      1650      1651      1653      1651      1657
      1657      1654      1654      1656      1657      1659      1660      1657
      1661      1662      1666      1667      1668      1669      1671      1672
      1674      1675      1677      1678      1661      1666      1661      1663
      1661      1664      1661      1665      1666      1668      1666      1674
      1668      1671      1668      1670      1671      1673      1671      1677
      1677      1674      1674      1676      1677      1679      1680      1677
      1681      1682      1686      1687      1688      1689      1691      1692
      1694      1695      1697      1698      1681      1686      1681      1683
      1681      1684      1681      1685      1686      1688      1686      1694
      1688      1691      1688      1690      1691      1693      1691      1697
      1697      1694      1694      1696      1697      1699      1700      1697
      1701      1702      1706      1707      1708      1709      1711      1712
      1714      1715      1717      1718      1701      1706      1701      1703
      1701      1704      1701      1705      1706      1708      1706      1714
      1708      1711      1708      1710      1711      1713      1711      1717
      1717      1714      1714      1716      1717      1719      1720      1717
      1721      1722      1726      1727      1728      1729      1731      1732
      1734      1735      1737      1738      1721      1726      1721      1723
      1721      1724      1721      1725      1726      1728      1726      1734
      1728      1731      1728      1730      1731      1733      1731      1737
      1737      1734      1734      1736      1737      1739      1740      1737
      1741      1742      1746      1747      1748      1749      1751      1752
      1754      1755      1757      1758      1741      1746      1741      1743
      1741      1744      1741      1745      1746      1748      1746      1754
      1748      1751      1748      1750      1751      1753      1751      1757
      1757      1754      1754      1756      1757      1759      1760      1757
      1761      1762      1766      1767      1768      1769      1771      1772
      1774      1775      1777      1778      1761      1766      1761      1763
      1761      1764      1761      1765      1766      1768      1766      1774
      1768      1771      1768      1770      1771      1773      1771      1777
      1777      1774      1774      1776      1777      1779      1780      1777
      1781      1782      1786      1787      1788      1789      1791      1792
      1794      1795      1797      1798      1781      1786      1781      1783
      1781      1784      1781      1785      1786      1788      1786      1794
      1788      1791      1788      1790      1791      1793      1791      1797
      1797      1794      1794      1796      1797      1799      1800      1797
      1801      1802      1806      1807      1808      1809      1811      1812
      1814      1815      1817      1818      1801      1806      1801      1803
      1801      1804      1801      1805      1806      1808      1806      1814
      1808      1811      1808      1810      1811      1813      1811      1817
      1817      1814      1814      1816      1817      1819      1820      1817
      1821      1822      1826      1827      1828      1829      1831      1832
      1834      1835      1837      1838      1821      1826      1821      1823
      1821      1824      1821      1825      1826      1828      1826      1834
      1828      1831      1828      1830      1831      1833      1831      1837
      1837      1834      1834      1836      1837      1839      1840      1837
      1841      1842      1846      1847      1848      1849      1851      1852
      1854      1855      1857      1858      1841      1846      1841      1843
      1841      1844      1841      1845      1846      1848      1846      1854
      1848      1851      1848      1850      1851      1853      1851      1857
      1857      1854      1854      1856      1857      1859      1860      1857
      1861      1862      1866      1867      1868      1869      1871      1872
      1874      1875      1877      1878      1861      1866      1861      1863
      1861      1864      1861      1865      1866      1868      1866      1874
      1868      1871      1868      1870      1871      1873      1871      1877
      1877      1874      1874      1876      1877      1879      1880      1877
      1881      1882      1886      1887      1888      1889      1891      1892
      1894      1895      1897      1898      1881      1886      1881      1883
      1881      1884      1881      1885      1886      1888      1886      1894
      1888      1891      1888      1890      1891      1893      1891      1897
      1897      1894      1894      1896      1897      1899      1900      1897
      1901      1902      1906      1907      1908      1909      1911      1912
      1914      1915      1917      1918      1901      1906      1901      1903
      1901      1904      1901      1905      1906      1908      1906      1914
      1908      1911      1908      1910      1911      1913      1911      1917
      1917      1914      1914      1916      1917      1919      1920      1917
      1921      1922      1926      1927      1928      1929      1931      1932
      1934      1935      1937      1938      1921      1926      1921      1923
      1921      1924      1921      1925      1926      1928      1926      1934
      1928      1931      1928      1930      1931      1933      1931      1937
      1937      1934      1934      1936      1937      1939      1940      1937
      1941      1942      1946      1947      1948      1949      1951      1952
      1954      1955      1957      1958      1941      1946      1941      1943
      1941      1944      1941      1945      1946      1948      1946      1954
      1948      1951      1948      1950      1951      1953      1951      1957
      1957      1954      1954      1956      1957      1959      1960      1957
      1961      1962      1966      1967      1968      1969      1971      1972
      1974      1975      1977      1978      1961      1966      1961      1963
      1961      1964      1961      1965      1966      1968      1966      1974
      1968      1971      1968      1970      1971      1973      1971      1977
      1977      1974      1974      1976      1977      1979      1980      1977
      1981      1982      1986      1987      1988      1989      1991      1992
      1994      1995      1997      1998      1981      1986      1981      1983
      1981      1984      1981      1985      1986      1988      1986      1994
      1988      1991      1988      1990      1991      1993      1991      1997
      1997      1994      1994      1996      1997      1999      2000      1997
      2001      2002      2006      2007      2008      2009      2011      2012
      2014      2015      2017      2018      2001      2006      2001      2003
      2001      2004      2001      2005      2006      2008      2006      2014
      2008      2011      2008      2010      2011      2013      2011      2017
      2017      2014      2014      2016      2017      2019      2020      2017
      2021      2022      2026      2027      2028      2029      2031      2032
      2034      2035      2037      2038      2021      2026      2021      2023
      2021      2024      2021      2025      2026      2028      2026      2034
      2028      2031      2028      2030      2031      2033      2031      2037
      2037      2034      2034      2036      2037      2039      2040      2037
      2041      2042      2046      2047      2048      2049      2051      2052
      2054      2055      2057      2058      2041      2046      2041      2043
      2041      2044      2041      2045      2046      2048      2046      2054
      2048      2051      2048      2050      2051      2053      2051      2057
      2057      2054      2054      2056      2057      2059      2060      2057
      2061      2062      2066      2067      2068      2069      2071      2072
      2074      2075      2077      2078      2061      2066      2061      2063
      2061      2064      2061      2065      2066      2068      2066      2074
      2068      2071      2068      2070      2071      2073      2071      2077
      2077      2074      2074      2076      2077      2079      2080      2077
      2081      2082      2086      2087      2088      2089      2091      2092
      2094      2095      2097      2098      2081      2086      2081      2083
      2081      2084      2081      2085      2086      2088      2086      2094
      2088      2091      2088      2090      2091      2093      2091      2097
      2097      2094      2094      2096      2097      2099      2100      2097
      2101      2102      2106      2107      2108      2109      2111      2112
      2114      2115      2117      2118      2101      2106      2101      2103
      2101      2104      2101      2105      2106      2108      2106      2114
      2108      2111      2108      2110      2111      2113      2111      2117
      2117      2114      2114      2116      2117      2119      2120      2117
      2121      2122      2126      2127      2128      2129      2131      2132
      2134      2135      2137      2138      2121      2126      2121      2123
      2121      2124      2121      2125      2126      2128      2126      2134
      2128      2131      2128      2130      2131      2133      2131      2137
      2137      2134      2134      2136      2137      2139      2140      2137
      2141      2142      2146      2147      2148      2149      2151      2152
      2154      2155      2157      2158      2141      2146      2141      2143
      2141      2144      2141      2145      2146      2148      2146      2154
      2148      2151      2148      2150      2151      2153      2151      2157
      2157      2154      2154      2156      2157      2159      2160      2157
      2161      2162      2166      2167      2168      2169      2171      2172
      2174      2175      2177      2178      2161      2166      2161      2163
      2161      2164      2161      2165      2166      2168      2166      2174
      2168      2171      2168      2170      2171      2173      2171      2177
      2177      2174      2174      2176      2177      2179      2180      2177
      2181      2182      2186      2187      2188      2189      2191      2192
      2194      2195      2197      2198      2181      2186      2181      2183
      2181      2184      2181      2185      2186      2188      2186      2194
      2188      2191      2188      2190      2191      2193      2191      2197
      2197      2194      2194      2196      2197      2199      2200      2197
      2201      2202      2206      2207      2208      2209      2211      2212
      2214      2215      2217      2218      2201      2206      2201      2203
      2201      2204      2201      2205      2206      2208      2206      2214
      2208      2211      2208      2210      2211      2213      2211      2217
      2217      2214      2214      2216      2217      2219      2220      2217
      2221      2222      2226      2227      2228      2229      2231      2232
      2234      2235      2237      2238      2221      2226      2221      2223
      2221      2224      2221      2225      2226      2228      2226      2234
      2228      2231      2228      2230      2231      2233      2231      2237
      2237      2234      2234      2236      2237      2239      2240      2237
      2241      2242      2246      2247      2248      2249      2251      2252
      2254      2255      2257      2258      2241      2246      2241      2243
      2241      2244      2241      2245      2246      2248      2246      2254
      2248      2251      2248      2250      2251      2253      2251      2257
      2257      2254      2254      2256      2257      2259      2260      2257
      2261      2262      2266      2267      2268      2269      2271      2272
      2274      2275      2277      2278      2261      2266      2261      2263
      2261      2264      2261      2265      2266      2268      2266      2274
      2268      2271      2268      2270      2271      2273      2271      2277
      2277      2274      2274      2276      2277      2279      2280      2277
      2281      2282      2286      2287      2288      2289      2291      2292
      2294      2295      2297      2298      2281      2286      2281      2283
      2281      2284      2281      2285      2286      2288      2286      2294
      2288      2291      2288      2290      2291      2293      2291      2297
      2297      2294      2294      2296      2297      2299      2300      2297
      2301      2302      2306      2307      2308      2309      2311      2312
      2314      2315      2317      2318      2301      2306      2301      2303
      2301      2304      2301      2305      2306      2308      2306      2314
      2308      2311      2308      2310      2311      2313      2311      2317
      2317      2314      2314      2316      2317      2319      2320      2317
      2321      2322      2326      2327      2328      2329      2331      2332
      2334      2335      2337      2338      2321      2326      2321      2323
      2321      2324      2321      2325      2326      2328      2326      2334
      2328      2331      2328      2330      2331      2333      2331      2337
      2337      2334      2334      2336      2337      2339      2340      2337
      2341      2342      2346      2347      2348      2349      2351      2352
      2354      2355      2357      2358      2341      2346      2341      2343
      2341      2344      2341      2345      2346      2348      2346      2354
      2348      2351      2348      2350      2351      2353      2351      2357
      2357      2354      2354      2356      2357      2359      2360      2357
      2361      2362      2366      2367      2368      2369      2371      2372
      2374      2375      2377      2378      2361      2366      2361      2363
      2361      2364      2361      2365      2366      2368      2366      2374
      2368      2371      2368      2370      2371      2373      2371      2377
      2377      2374      2374      2376      2377      2379      2380      2377
      2381      2382      2386      2387      2388      2389      2391      2392
      2394      2395      2397      2398      2381      2386      2381      2383
      2381      2384      2381      2385      2386      2388      2386      2394
      2388      2391      2388      2390      2391      2393      2391      2397
      2397      2394      2394      2396      2397      2399      2400      2397
      2401      2402      2406      2407      2408      2409      2411      2412
      2414      2415      2417      2418      2401      2406      2401      2403
      2401      2404      2401      2405      2406      2408      2406      2414
      2408      2411      2408      2410      2411      2413      2411      2417
      2417      2414      2414      2416      2417      2419      2420      2417
      2421      2422      2426      2427      2428      2429      2431      2432
      2434      2435      2437      2438      2421      2426      2421      2423
      2421      2424      2421      2425      2426      2428      2426      2434
      2428      2431      2428      2430      2431      2433      2431      2437
      2437      2434      2434      2436      2437      2439      2440      2437
      2441      2442      2446      2447      2448      2449      2451      2452
      2454      2455      2457      2458      2441      2446      2441      2443
      2441      2444      2441      2445      2446      2448      2446      2454
      2448      2451      2448      2450      2451      2453      2451      2457
      2457      2454      2454      2456      2457      2459      2460      2457
      2461      2462      2466      2467      2468      2469      2471      2472
      2474      2475      2477      2478      2461      2466      2461      2463
      2461      2464      2461      2465      2466      2468      2466      2474
      2468      2471      2468      2470      2471      2473      2471      2477
      2477      2474      2474      2476      2477      2479      2480      2477
      2481      2482      2486      2487      2488      2489      2491      2492
      2494      2495      2497      2498      2481      2486      2481      2483
      2481      2484      2481      2485      2486      2488      2486      2494
      2488      2491      2488      2490      2491      2493      2491      2497
      2497      2494      2494      2496      2497      2499      2500      2497
      2501      2502      2506      2507      2508      2509      2511      2512
      2514      2515      2517      2518      2501      2506      2501      2503
      2501      2504      2501      2505      2506      2508      2506      2514
      2508      2511      2508      2510      2511      2513      2511      2517
      2517      2514      2514      2516      2517      2519      2520      2517
      2521      2522      2526      2527      2528      2529      2531      2532
      2534      2535      2537      2538      2521      2526      2521      2523
      2521      2524      2521      2525      2526      2528      2526      2534
      2528      2531      2528      2530      2531      2533      2531      2537
      2537      2534      2534      2536      2537      2539      2540      2537
      2541      2542      2546      2547      2548      2549      2551      2552
      2554      2555      2557      2558      2541      2546      2541      2543
      2541      2544      2541      2545      2546      2548      2546      2554
      2548      2551      2548      2550      2551      2553      2551      2557
      2557      2554      2554      2556      2557      2559      2560      2557
      2561      2562      2566      2567      2568      2569      2571      2572
      2574      2575      2577      2578      2561      2566      2561      2563
      2561      2564      2561      2565      2566      2568      2566      2574
      2568      2571      2568      2570      2571      2573      2571      2577
      2577      2574      2574      2576      2577      2579      2580      2577
      2581      2582      2586      2587      2588      2589      2591      2592
      2594      2595      2597      2598      2581      2586      2581      2583
      2581      2584      2581      2585      2586      2588      2586      2594
      2588      2591      2588      2590      2591      2593      2591      2597
      2597      2594      2594      2596      2597      2599      2600      2597
      2601      2602      2606      2607      2608      2609      2611      2612
      2614      2615      2617      2618      2601      2606      2601      2603
      2601      2604      2601      2605      2606      2608      2606      2614
      2608      2611      2608      2610      2611      2613      2611      2617
      2617      2614      2614      2616      2617      2619      2620      2617
      2621      2622      2626      2627      2628      2629      2631      2632
      2634      2635      2637      2638      2621      2626      2621      2623
      2621      2624      2621      2625      2626      2628      2626      2634
      2628      2631      2628      2630      2631      2633      2631      2637
      2637      2634      2634      2636      2637      2639      2640      2637
      2641      2642      2646      2647      2648      2649      2651      2652
      2654      2655      2657      2658      2641      2646      2641      2643
      2641      2644      2641      2645      2646      2648      2646      2654
      2648      2651      2648      2650      2651      2653      2651      2657
      2657      2654      2654      2656      2657      2659      2660      2657
      2661      2662      2666      2667      2668      2669      2671      2672
      2674      2675      2677      2678      2661      2666      2661      2663
      2661      2664      2661      2665      2666      2668      2666      2674
      2668      2671      2668      2670      2671      2673      2671      2677
      2677      2674      2674      2676      2677      2679      2680      2677
      2681      2682      2686      2687      2688      2689      2691      2692
      2694      2695      2697      2698      2681      2686      2681      2683
      2681      2684      2681      2685      2686      2688      2686      2694
      2688      2691      2688      2690      2691      2693      2691      2697
      2697      2694      2694      2696      2697      2699      2700      2697
      2701      2702      2703      2704      2705      2706      2707      2708
      2709      2710      2711      2712      2701      2703      2701      2713
      2701      2714      2701      2715      2703      2705      2703      2716
      2703      2717      2705      2707      2705      2718      2705      2719
      2707      2709      2707      2711      2711      2720      2709      2721
      2722      2709      2723      2709      2724      2711      2725      2711
      2726      2727      2728      2729      2730      2731      2732      2733
      2734      2735      2736      2737      2726      2728      2726      2738
      2726      2739      2726      2740      2728      2730      2728      2741
      2728      2742      2730      2732      2730      2743      2730      2744
      2732      2734      2732      2736      2736      2745      2734      2746
      2747      2734      2748      2734      2749      2736      2750      2736
      2751      2752      2753      2754      2755      2756      2757      2758
      2759      2760      2761      2762      2751      2753      2751      2763
      2751      2764      2751      2765      2753      2755      2753      2766
      2753      2767      2755      2757      2755      2768      2755      2769
      2757      2759      2757      2761      2761      2770      2759      2771
      2772      2759      2773      2759      2774      2761      2775      2761
      2776      2777      2778      2779      2780      2781      2782      2783
      2784      2785      2786      2787      2776      2778      2776      2788
      2776      2789      2776      2790      2778      2780      2778      2791
      2778      2792      2780      2782      2780      2793      2780      2794
      2782      2784      2782      2786      2786      2795      2784      2796
      2797      2784      2798      2784      2799      2786      2800      2786
      2801      2802      2803      2804      2805      2806      2807      2808
      2809      2810      2811      2812      2801      2803      2801      2813
      2801      2814      2801      2815      2803      2805      2803      2816
      2803      2817      2805      2807      2805      2818      2805      2819
      2807      2809      2807      2811      2811      2820      2809      2821
      2822      2809      2823      2809      2824      2811      2825      2811
      2826      2827      2828      2829      2830      2831      2832      2833
      2834      2835      2836      2837      2826      2828      2826      2838
      2826      2839      2826      2840      2828      2830      2828      2841
      2828      2842      2830      2832      2830      2843      2830      2844
      2832      2834      2832      2836      2836      2845      2834      2846
      2847      2834      2848      2834      2849      2836      2850      2836
      2851      2852      2853      2854      2855      2856      2857      2858
      2859      2860      2861      2862      2851      2853      2851      2863
      2851      2864      2851      2865      2853      2855      2853      2866
      2853      2867      2855      2857      2855      2868      2855      2869
      2857      2859      2857      2861      2861      2870      2859      2871
      2872      2859      2873      2859      2874      2861      2875      2861
      2876      2877      2878      2879      2880      2881      2882      2883
      2884      2885      2886      2887      2876      2878      2876      2888
      2876      2889      2876      2890      2878      2880      2878      2891
      2878      2892      2880      2882      2880      2893      2880      2894
      2882      2884      2882      2886      2886      2895      2884      2896
      2897      2884      2898      2884      2899      2886      2900      2886
      2901      2902      2903      2904      2905      2906      2907      2908
      2909      2910      2911      2912      2901      2903      2901      2913
      2901      2914      2901      2915      2903      2905      2903      2916
      2903      2917      2905      2907      2905      2918      2905      2919
      2907      2909      2907      2911      2911      2920      2909      2921
      2922      2909      2923      2909      2924      2911      2925      2911
      2926      2927      2928      2929      2930      2931      2932      2933
      2934      2935      2936      2937      2926      2928      2926      2938
      2926      2939      2926      2940      2928      2930      2928      2941
      2928      2942      2930      2932      2930      2943      2930      2944
      2932      2934      2932      2936      2936      2945      2934      2946
      2947      2934      2948      2934      2949      2936      2950      2936
      2951      2952      2953      2954      2955      2956      2957      2958
      2959      2960      2961      2962      2951      2953      2951      2963
      2951      2964      2951      2965      2953      2955      2953      2966
      2953      2967      2955      2957      2955      2968      2955      2969
      2957      2959      2957      2961      2961      2970      2959      2971
      2972      2959      2973      2959      2974      2961      2975      2961
      2976      2977      2978      2979      2980      2981      2982      2983
      2984      2985      2986      2987      2976      2978      2976      2988
      2976      2989      2976      2990      2978      2980      2978      2991
      2978      2992      2980      2982      2980      2993      2980      2994
      2982      2984      2982      2986      2986      2995      2984      2996
      2997      2984      2998      2984      2999      2986      3000      2986
      3001      3002      3003      3004      3005      3006      3007      3008
      3009      3010      3011      3012      3001      3003      3001      3013
      3001      3014      3001      3015      3003      3005      3003      3016
      3003      3017      3005      3007      3005      3018      3005      3019
      3007      3009      3007      3011      3011      3020      3009      3021
      3022      3009      3023      3009      3024      3011      3025      3011
      3026      3027      3028      3029      3030      3031      3032      3033
      3034      3035      3036      3037      3026      3028      3026      3038
      3026      3039      3026      3040      3028      3030      3028      3041
      3028      3042      3030      3032      3030      3043      3030      3044
      3032      3034      3032      3036      3036      3045      3034      3046
      3047      3034      3048      3034      3049      3036      3050      3036
      3051      3052      3053      3054      3055      3056      3057      3058
      3059      3060      3061      3062      3051      3053      3051      3063
      3051      3064      3051      3065      3053      3055      3053      3066
      3053      3067      3055      3057      3055      3068      3055      3069
      3057      3059      3057      3061      3061      3070      3059      3071
      3072      3059      3073      3059      3074      3061      3075      3061
      3076      3077      3078      3079      3080      3081      3082      3083
      3084      3085      3086      3087      3076      3078      3076      3088
      3076      3089      3076      3090      3078      3080      3078      3091
      3078      3092      3080      3082      3080      3093      3080      3094
      3082      3084      3082      3086      3086      3095      3084      3096
      3097      3084      3098      3084      3099      3086      3100      3086
      3101      3102      3103      3104      3105      3106      3107      3108
      3109      3110      3111      3112      3101      3103      3101      3113
      3101      3114      3101      3115      3103      3105      3103      3116
      3103      3117      3105      3107      3105      3118      3105      3119
      3107      3109      3107      3111      3111      3120      3109      3121
      3122      3109      3123      3109      3124      3111      3125      3111
      3126      3127      3128      3129      3130      3131      3132      3133
      3134      3135      3136      3137      3126      3128      3126      3138
      3126      3139      3126      3140      3128      3130      3128      3141
      3128      3142      3130      3132      3130      3143      3130      3144
      3132      3134      3132      3136      3136      3145      3134      3146
      3147      3134      3148      3134      3149      3136      3150      3136
      3151      3152      3153      3154      3155      3156      3157      3158
      3159      3160      3161      3162      3151      3153      3151      3163
      3151      3164      3151      3165      3153      3155      3153      3166
      3153      3167      3155      3157      3155      3168      3155      3169
      3157      3159      3157      3161      3161      3170      3159      3171
      3172      3159      3173      3159      3174      3161      3175      3161
      3176      3177      3178      3179      3180      3181      3182      3183
      3184      3185      3186      3187      3176      3178      3176      3188
      3176      3189      3176      3190      3178      3180      3178      3191
      3178      3192      3180      3182      3180      3193      3180      3194
      3182      3184      3182      3186      3186      3195      3184      3196
      3197      3184      3198      3184      3199      3186      3200      3186
      3201      3202      3203      3204      3205      3206      3207      3208
      3209      3210      3211      3212      3201      3203      3201      3213
      3201      3214      3201      3215      3203      3205      3203      3216
      3203      3217      3205      3207      3205      3218      3205      3219
      3207      3209      3207      3211      3211      3220      3209      3221
      3222      3209      3223      3209      3224      3211      3225      3211
      3226      3227      3228      3229      3230      3231      3232      3233
      3234      3235      3236      3237      3226      3228      3226      3238
      3226      3239      3226      3240      3228      3230      3228      3241
      3228      3242      3230      3232      3230      3243      3230      3244
      3232      3234      3232      3236      3236      3245      3234      3246
      3247      3234      3248      3234      3249      3236      3250      3236
      3251      3252      3253      3254      3255      3256      3257      3258
      3259      3260      3261      3262      3251      3253      3251      3263
      3251      3264      3251      3265      3253      3255      3253      3266
      3253      3267      3255      3257      3255      3268      3255      3269
      3257      3259      3257      3261      3261      3270      3259      3271
      3272      3259      3273      3259      3274      3261      3275      3261
      3276      3277      3278      3279      3280      3281      3282      3283
      3284      3285      3286      3287      3276      3278      3276      3288
      3276      3289      3276      3290      3278      3280      3278      3291
      3278      3292      3280      3282      3280      3293      3280      3294
      3282      3284      3282      3286      3286      3295      3284      3296
      3297      3284      3298      3284      3299      3286      3300      3286
      3301      3302      3303      3304      3305      3306      3307      3308
      3309      3310      3311      3312      3301      3303      3301      3313
      3301      3314      3301      3315      3303      3305      3303      3316
      3303      3317      3305      3307      3305      3318      3305      3319
      3307      3309      3307      3311      3311      3320      3309      3321
      3322      3309      3323      3309      3324      3311      3325      3311
      3326      3327      3328      3329      3330      3331      3332      3333
      3334      3335      3336      3337      3326      3328      3326      3338
      3326      3339      3326      3340      3328      3330      3328      3341
      3328      3342      3330      3332      3330      3343      3330      3344
      3332      3334      3332      3336      3336      3345      3334      3346
      3347      3334      3348      3334      3349      3336      3350      3336
      3351      3352      3353      3354      3355      3356      3357      3358
      3359      3360      3361      3362      3351      3353      3351      3363
      3351      3364      3351      3365      3353      3355      3353      3366
      3353      3367      3355      3357      3355      3368      3355      3369
      3357      3359      3357      3361      3361      3370      3359      3371
      3372      3359      3373      3359      3374      3361      3375      3361
      3376      3377      3378      3379      3380      3381      3382      3383
      3384      3385      3386      3387      3376      3378      3376      3388
      3376      3389      3376      3390      3378      3380      3378      3391
      3378      3392      3380      3382      3380      3393      3380      3394
      3382      3384      3382      3386      3386      3395      3384      3396
      3397      3384      3398      3384      3399      3386      3400      3386
      3401      3402      3403      3404      3405      3406      3407      3408
      3409      3410      3411      3412      3401      3403      3401      3413
      3401      3414      3401      3415      3403      3405      3403      3416
      3403      3417      3405      3407      3405      3418      3405      3419
      3407      3409      3407      3411      3411      3420      3409      3421
      3422      3409      3423      3409      3424      3411      3425      3411
      3426      3427      3428      3429      3430      3431      3432      3433
      3434      3435      3436      3437      3426      3428      3426      3438
      3426      3439      3426      3440      3428      3430      3428      3441
      3428      3442      3430      3432      3430      3443      3430      3444
      3432      3434      3432      3436      3436      3445      3434      3446
      3447      3434      3448      3434      3449      3436      3450      3436
      3451      3452      3453      3454      3455      3456      3457      3458
      3459      3460      3461      3462      3451      3453      3451      3463
      3451      3464      3451      3465      3453      3455      3453      3466
      3453      3467      3455      3457      3455      3468      3455      3469
      3457      3459      3457      3461      3461      3470      3459      3471
      3472      3459      3473      3459      3474      3461      3475      3461
      3476      3477      3478      3479      3480      3481      3482      3483
      3484      3485      3486      3487      3476      3478      3476      3488
      3476      3489      3476      3490      3478      3480      3478      3491
      3478      3492      3480      3482      3480      3493      3480      3494
      3482      3484      3482      3486      3486      3495      3484      3496
      3497      3484      3498      3484      3499      3486      3500      3486
      3501      3502      3503      3504      3505      3506      3507      3508
      3509      3510      3511      3512      3501      3503      3501      3513
      3501      3514      3501      3515      3503      3505      3503      3516
      3503      3517      3505      3507      3505      3518      3505      3519
      3507      3509      3507      3511      3511      3520      3509      3521
      3522      3509      3523      3509      3524      3511      3525      3511
      3526      3527      3528      3529      3530      3531      3532      3533
      3534      3535      3536      3537      3526      3528      3526      3538
      3526      3539      3526      3540      3528      3530      3528      3541
      3528      3542      3530      3532      3530      3543      3530      3544
      3532      3534      3532      3536      3536      3545      3534      3546
      3547      3534      3548      3534      3549      3536      3550      3536
      3551      3552      3553      3554      3555      3556      3557      3558
      3559      3560      3561      3562      3551      3553      3551      3563
      3551      3564      3551      3565      3553      3555      3553      3566
      3553      3567      3555      3557      3555      3568      3555      3569
      3557      3559      3557      3561      3561      3570      3559      3571
      3572      3559      3573      3559      3574      3561      3575      3561
      3576      3577      3578      3579      3580      3581      3582      3583
      3584      3585      3586      3587      3576      3578      3576      3588
      3576      3589      3576      3590      3578      3580      3578      3591
      3578      3592      3580      3582      3580      3593      3580      3594
      3582      3584      3582      3586      3586      3595      3584      3596
      3597      3584      3598      3584      3599      3586      3600      3586
      3601      3602      3603      3604      3605      3606      3607      3608
      3609      3610      3611      3612      3601      3603      3601      3613
      3601      3614      3601      3615      3603      3605      3603      3616
      3603      3617      3605      3607      3605      3618      3605      3619
      3607      3609      3607      3611      3611      3620      3609      3621
      3622      3609      3623      3609      3624      3611      3625      3611
      3626      3627      3628      3629      3630      3631      3632      3633
      3634      3635      3636      3637      3626      3628      3626      3638
      3626      3639      3626      3640      3628      3630      3628      3641
      3628      3642      3630      3632      3630      3643      3630      3644
      3632      3634      3632      3636      3636      3645      3634      3646
      3647      3634      3648      3634      3649      3636      3650      3636
      3651      3652      3653      3654      3655      3656      3657      3658
      3659      3660      3661      3662      3651      3653      3651      3663
      3651      3664      3651      3665      3653      3655      3653      3666
      3653      3667      3655      3657      3655      3668      3655      3669
      3657      3659      3657      3661      3661      3670      3659      3671
      3672      3659      3673      3659      3674      3661      3675      3661
      3676      3677      3678      3679      3680      3681      3682      3683
      3684      3685      3686      3687      3676      3678      3676      3688
      3676      3689      3676      3690      3678      3680      3678      3691
      3678      3692      3680      3682      3680      3693      3680      3694
      3682      3684      3682      3686      3686      3695      3684      3696
      3697      3684      3698      3684      3699      3686      3700      3686
      3701      3702      3703      3704      3705      3706      3707      3708
      3709      3710      3711      3712      3701      3703      3701      3713
      3701      3714      3701      3715      3703      3705      3703      3716
      3703      3717      3705      3707      3705      3718      3705      3719
      3707      3709      3707      3711      3711      3720      3709      3721
      3722      3709      3723      3709      3724      3711      3725      3711
      3726      3727      3728      3729      3730      3731      3732      3733
      3734      3735      3736      3737      3726      3728      3726      3738
      3726      3739      3726      3740      3728      3730      3728      3741
      3728      3742      3730      3732      3730      3743      3730      3744
      3732      3734      3732      3736      3736      3745      3734      3746
      3747      3734      3748      3734      3749      3736      3750      3736
      3751      3752      3753      3754      3755      3756      3757      3758
      3759      3760      3761      3762      3751      3753      3751      3763
      3751      3764      3751      3765      3753      3755      3753      3766
      3753      3767      3755      3757      3755      3768      3755      3769
      3757      3759      3757      3761      3761      3770      3759      3771
      3772      3759      3773      3759      3774      3761      3775      3761
      3776      3777      3778      3779      3780      3781      3782      3783
      3784      3785      3786      3787      3776      3778      3776      3788
      3776      3789      3776      3790      3778      3780      3778      3791
      3778      3792      3780      3782      3780      3793      3780      3794
      3782      3784      3782      3786      3786      3795      3784      3796
      3797      3784      3798      3784      3799      3786      3800      3786
      3801      3802      3803      3804      3805      3806      3807      3808
      3809      3810      3811      3812      3801      3803      3801      3813
      3801      3814      3801      3815      3803      3805      3803      3816
      3803      3817      3805      3807      3805      3818      3805      3819
      3807      3809      3807      3811      3811      3820      3809      3821
      3822      3809      3823      3809      3824      3811      3825      3811
      3826      3827      3828      3829      3830      3831      3832      3833
      3834      3835      3836      3837      3826      3828      3826      3838
      3826      3839      3826      3840      3828      3830      3828      3841
      3828      3842      3830      3832      3830      3843      3830      3844
      3832      3834      3832      3836      3836      3845      3834      3846
      3847      3834      3848      3834      3849      3836      3850      3836
      3851      3852      3853      3854      3855      3856      3857      3858
      3859      3860      3861      3862      3851      3853      3851      3863
      3851      3864      3851      3865      3853      3855      3853      3866
      3853      3867      3855      3857      3855      3868      3855      3869
      3857      3859      3857      3861      3861      3870      3859      3871
      3872      3859      3873      3859      3874      3861      3875      3861
      3876      3877      3878      3879      3880      3881      3882      3883
      3884      3885      3886      3887      3876      3878      3876      3888
      3876      3889      3876      3890      3878      3880      3878      3891
      3878      3892      3880      3882      3880      3893      3880      3894
      3882      3884      3882      3886      3886      3895      3884      3896
      3897      3884      3898      3884      3899      3886      3900      3886
      3901      3902      3903      3904      3905      3906      3907      3908
      3909      3910      3911      3912      3901      3903      3901      3913
      3901      3914      3901      3915      3903      3905      3903      3916
      3903      3917      3905      3907      3905      3918      3905      3919
      3907      3909      3907      3911      3911      3920      3909      3921
      3922      3909      3923      3909      3924      3911      3925      3911
      3926      3927      3928      3929      3930      3931      3932      3933
      3934      3935      3936      3937      3926      3928      3926      3938
      3926      3939      3926      3940      3928      3930      3928      3941
      3928      3942      3930      3932      3930      3943      3930      3944
      3932      3934      3932      3936      3936      3945      3934      3946
      3947      3934      3948      3934      3949      3936      3950      3936
      3951      3952      3953      3954      3955      3956      3957      3958
      3959      3960      3961      3962      3951      3953      3951      3963
      3951      3964      3951      3965      3953      3955      3953      3966
      3953      3967      3955      3957      3955      3968      3955      3969
      3957      3959      3957      3961      3961      3970      3959      3971
      3972      3959      3973      3959      3974      3961      3975      3961
      3976      3977      3978      3979      3980      3981      3982      3983
      3984      3985      3986      3987      3976      3978      3976      3988
      3976      3989      3976      3990      3978      3980      3978      3991
      3978      3992      3980      3982      3980      3993      3980      3994
      3982      3984      3982      3986      3986      3995      3984      3996
      3997      3984      3998      3984      3999      3986      4000      3986
      4001      4002      4003      4004      4005      4006      4007      4008
      4009      4010      4011      4012      4001      4003      4001      4013
      4001      4014      4001      4015      4003      4005      4003      4016
      4003      4017      4005      4007      4005      4018      4005      4019
      4007      4009      4007      4011      4011      4020      4009      4021
      4022      4009      4023      4009      4024      4011      4025      4011
      4026      4027      4028      4029      4030      4031      4032      4033
      4034      4035      4036      4037      4026      4028      4026      4038
      4026      4039      4026      4040      4028      4030      4028      4041
      4028      4042      4030      4032      4030      4043      4030      4044
      4032      4034      4032      4036      4036      4045      4034      4046
      4047      4034      4048      4034      4049      4036      4050      4036
      4051      4052      4053      4054      4055      4056      4057      4058
      4059      4060      4061      4062      4051      4053      4051      4063
      4051      4064      4051      4065      4053      4055      4053      4066
      4053      4067      4055      4057      4055      4068      4055      4069
      4057      4059      4057      4061      4061      4070      4059      4071
      4072      4059      4073      4059      4074      4061      4075      4061
      4076      4077      4078      4079      4080      4081      4082      4083
      4084      4085      4086      4087      4076      4078      4076      4088
      4076      4089      4076      4090      4078      4080      4078      4091
      4078      4092      4080      4082      4080      4093      4080      4094
      4082      4084      4082      4086      4086      4095      4084      4096
      4097      4084      4098      4084      4099      4086      4100      4086
      4101      4102      4103      4104      4105      4106      4107      4108
      4109      4110      4111      4112      4101      4103      4101      4113
      4101      4114      4101      4115      4103      4105      4103      4116
      4103      4117      4105      4107      4105      4118      4105      4119
      4107      4109      4107      4111      4111      4120      4109      4121
      4122      4109      4123      4109      4124      4111      4125      4111
      4126      4127      4128      4129      4130      4131      4132      4133
      4134      4135      4136      4137      4126      4128      4126      4138
      4126      4139      4126      4140      4128      4130      4128      4141
      4128      4142      4130      4132      4130      4143      4130      4144
      4132      4134      4132      4136      4136      4145      4134      4146
      4147      4134      4148      4134      4149      4136      4150      4136
      4151      4152      4153      4154      4155      4156      4157      4158
      4159      4160      4161      4162      4151      4153      4151      4163
      4151      4164      4151      4165      4153      4155      4153      4166
      4153      4167      4155      4157      4155      4168      4155      4169
      4157      4159      4157      4161      4161      4170      4159      4171
      4172      4159      4173      4159      4174      4161      4175      4161
      4176      4177      4178      4179      4180      4181      4182      4183
      4184      4185      4186      4187      4176      4178      4176      4188
      4176      4189      4176      4190      4178      4180      4178      4191
      4178      4192      4180      4182      4180      4193      4180      4194
      4182      4184      4182      4186      4186      4195      4184      4196
      4197      4184      4198      4184      4199      4186      4200      4186
      4201      4202      4203      4204      4205      4206      4207      4208
      4209      4210      4211      4212      4201      4203      4201      4213
      4201      4214      4201      4215      4203      4205      4203      4216
      4203      4217      4205      4207      4205      4218      4205      4219
      4207      4209      4207      4211      4211      4220      4209      4221
      4222      4209      4223      4209      4224      4211      4225      4211
      4226      4227      4228      4229      4230      4231      4232      4233
      4234      4235      4236      4237      4226      4228      4226      4238
      4226      4239      4226      4240      4228      4230      4228      4241
      4228      4242      4230      4232      4230      4243      4230      4244
      4232      4234      4232      4236      4236      4245      4234      4246
      4247      4234      4248      4234      4249      4236      4250      4236
      4251      4252      4253      4254      4255      4256      4257      4258
      4259      4260      4261      4262      4251      4253      4251      4263
      4251      4264      4251      4265      4253      4255      4253      4266
      4253      4267      4255      4257      4255      4268      4255      4269
      4257      4259      4257      4261      4261      4270      4259      4271
      4272      4259      4273      4259      4274      4261      4275      4261
      4276      4277      4278      4279      4280      4281      4282      4283
      4284      4285      4286      4287      4276      4278      4276      4288
      4276      4289      4276      4290      4278      4280      4278      4291
      4278      4292      4280      4282      4280      4293      4280      4294
      4282      4284      4282      4286      4286      4295      4284      4296
      4297      4284      4298      4284      4299      4286      4300      4286
      4301      4302      4303      4304      4305      4306      4307      4308
      4309      4310      4311      4312      4301      4303      4301      4313
      4301      4314      4301      4315      4303      4305      4303      4316
      4303      4317      4305      4307      4305      4318      4305      4319
      4307      4309      4307      4311      4311      4320      4309      4321
      4322      4309      4323      4309      4324      4311      4325      4311
      4326      4327      4328      4329      4330      4331      4332      4333
      4334      4335      4336      4337      4326      4328      4326      4338
      4326      4339      4326      4340      4328      4330      4328      4341
      4328      4342      4330      4332      4330      4343      4330      4344
      4332      4334      4332      4336      4336      4345      4334      4346
      4347      4334      4348      4334      4349      4336      4350      4336
      4351      4352      4353      4354      4355      4356      4357      4358
      4359      4360      4361      4362      4351      4353      4351      4363
      4351      4364      4351      4365      4353      4355      4353      4366
      4353      4367      4355      4357      4355      4368      4355      4369
      4357      4359      4357      4361      4361      4370      4359      4371
      4372      4359      4373      4359      4374      4361      4375      4361
      4376      4377      4378      4379      4380      4381      4382      4383
      4384      4385      4386      4387      4376      4378      4376      4388
      4376      4389      4376      4390      4378      4380      4378      4391
      4378      4392      4380      4382      4380      4393      4380      4394
      4382      4384      4382      4386      4386      4395      4384      4396
      4397      4384      4398      4384      4399      4386      4400      4386
      4401      4402      4403      4404      4405      4406      4407      4408
      4409      4410      4411      4412      4401      4403      4401      4413
      4401      4414      4401      4415      4403      4405      4403      4416
      4403      4417      4405      4407      4405      4418      4405      4419
      4407      4409      4407      4411      4411      4420      4409      4421
      4422      4409      4423      4409      4424      4411      4425      4411
      4426      4427      4428      4429      4430      4431      4432      4433
      4434      4435      4436      4437      4426      4428      4426      4438
      4426      4439      4426      4440      4428      4430      4428      4441
      4428      4442      4430      4432      4430      4443      4430      4444
      4432      4434      4432      4436      4436      4445      4434      4446
      4447      4434      4448      4434      4449      4436      4450      4436
      4451      4452      4453      4454      4455      4456      4457      4458
      4459      4460      4461      4462      4451      4453      4451      4463
      4451      4464      4451      4465      4453      4455      4453      4466
      4453      4467      4455      4457      4455      4468      4455      4469
      4457      4459      4457      4461      4461      4470      4459      4471
      4472      4459      4473      4459      4474      4461      4475      4461
      4476      4477      4478      4479      4480      4481      4482      4483
      4484      4485      4486      4487      4476      4478      4476      4488
      4476      4489      4476      4490      4478      4480      4478      4491
      4478      4492      4480      4482      4480      4493      4480      4494
      4482      4484      4482      4486      4486      4495      4484      4496
      4497      4484      4498      4484      4499      4486      4500      4486
      4501      4502      4503      4504      4505      4506      4507      4508
      4509      4510      4511      4512      4501      4503      4501      4513
      4501      4514      4501      4515      4503      4505      4503      4516
      4503      4517      4505      4507      4505      4518      4505      4519
      4507      4509      4507      4511      4511      4520      4509      4521
      4522      4509      4523      4509      4524      4511      4525      4511
      4526      4527      4528      4529      4530      4531      4532      4533
      4534      4535      4536      4537      4526      4528      4526      4538
      4526      4539      4526      4540      4528      4530      4528      4541
      4528      4542      4530      4532      4530      4543      4530      4544
      4532      4534      4532      4536      4536      4545      4534      4546
      4547      4534      4548      4534      4549      4536      4550      4536
      4551      4552      4553      4554      4555      4556      4557      4558
      4559      4560      4561      4562      4551      4553      4551      4563
      4551      4564      4551      4565      4553      4555      4553      4566
      4553      4567      4555      4557      4555      4568      4555      4569
      4557      4559      4557      4561      4561      4570      4559      4571
      4572      4559      4573      4559      4574      4561      4575      4561
      4576      4577      4578      4579      4580      4581      4582      4583
      4584      4585      4586      4587      4576      4578      4576      4588
      4576      4589      4576      4590      4578      4580      4578      4591
      4578      4592      4580      4582      4580      4593      4580      4594
      4582      4584      4582      4586      4586      4595      4584      4596
      4597      4584      4598      4584      4599      4586      4600      4586
      4601      4602      4603      4604      4605      4606      4607      4608
      4609      4610      4611      4612      4601      4603      4601      4613
      4601      4614      4601      4615      4603      4605      4603      4616
      4603      4617      4605      4607      4605      4618      4605      4619
      4607      4609      4607      4611      4611      4620      4609      4621
      4622      4609      4623      4609      4624      4611      4625      4611
      4626      4627      4628      4629      4630      4631      4632      4633
      4634      4635      4636      4637      4626      4628      4626      4638
      4626      4639      4626      4640      4628      4630      4628      4641
      4628      4642      4630      4632      4630      4643      4630      4644
      4632      4634      4632      4636      4636      4645      4634      4646
      4647      4634      4648      4634      4649      4636      4650      4636
      4651      4652      4653      4654      4655      4656      4657      4658
      4659      4660      4661      4662      4651      4653      4651      4663
      4651      4664      4651      4665      4653      4655      4653      4666
      4653      4667      4655      4657      4655      4668      4655      4669
      4657      4659      4657      4661      4661      4670      4659      4671
      4672      4659      4673      4659      4674      4661      4675      4661
      4676      4677      4678      4679      4680      4681      4682      4683
      4684      4685      4686      4687      4676      4678      4676      4688
      4676      4689      4676      4690      4678      4680      4678      4691
      4678      4692      4680      4682      4680      4693      4680      4694
      4682      4684      4682      4686      4686      4695      4684      4696
      4697      4684      4698      4684      4699      4686      4700      4686
      4701      4702      4703      4704      4705      4706      4707      4708
      4709      4710      4711      4712      4701      4703      4701      4713
      4701      4714      4701      4715      4703      4705      4703      4716
      4703      4717      4705      4707      4705      4718      4705      4719
      4707      4709      4707      4711      4711      4720      4709      4721
      4722      4709      4723      4709      4724      4711      4725      4711
      4726      4727      4728      4729      4730      4731      4732      4733
      4734      4735      4736      4737      4726      4728      4726      4738
      4726      4739      4726      4740      4728      4730      4728      4741
      4728      4742      4730      4732      4730      4743      4730      4744
      4732      4734      4732      4736      4736      4745      4734      4746
      4747      4734      4748      4734      4749      4736      4750      4736
      4751      4752      4753      4754      4755      4756      4757      4758
      4759      4760      4761      4762      4751      4753      4751      4763
      4751      4764      4751      4765      4753      4755      4753      4766
      4753      4767      4755      4757      4755      4768      4755      4769
      4757      4759      4757      4761      4761      4770      4759      4771
      4772      4759      4773      4759      4774      4761      4775      4761
      4776      4777      4778      4779      4780      4781      4782      4783
      4784      4785      4786      4787      4776      4778      4776      4788
      4776      4789      4776      4790      4778      4780      4778      4791
      4778      4792      4780      4782      4780      4793      4780      4794
      4782      4784      4782      4786      4786      4795      4784      4796
      4797      4784      4798      4784      4799      4786      4800      4786
      4801      4802      4803      4804      4805      4806      4807      4808
      4809      4810      4811      4812      4801      4803      4801      4813
      4801      4814      4801      4815      4803      4805      4803      4816
      4803      4817      4805      4807      4805      4818      4805      4819
      4807      4809      4807      4811      4811      4820      4809      4821
      4822      4809      4823      4809      4824      4811      4825      4811
      4826      4827      4828      4829      4830      4831      4832      4833
      4834      4835      4836      4837      4826      4828      4826      4838
      4826      4839      4826      4840      4828      4830      4828      4841
      4828      4842      4830      4832      4830      4843      4830      4844
      4832      4834      4832      4836      4836      4845      4834      4846
      4847      4834      4848      4834      4849      4836      4850      4836
      4851      4852      4853      4854      4855      4856      4857      4858
      4859      4860      4861      4862      4851      4853      4851      4863
      4851      4864      4851      4865      4853      4855      4853      4866
      4853      4867      4855      4857      4855      4868      4855      4869
      4857      4859      4857      4861      4861      4870      4859      4871
      4872      4859      4873      4859      4874      4861      4875      4861
      4876      4877      4878      4879      4880      4881      4882      4883
      4884      4885      4886      4887      4876      4878      4876      4888
      4876      4889      4876      4890      4878      4880      4878      4891
      4878      4892      4880      4882      4880      4893      4880      4894
      4882      4884      4882      4886      4886      4895      4884      4896
      4897      4884      4898      4884      4899      4886      4900      4886
      4901      4902      4903      4904      4905      4906      4907      4908
      4909      4910      4911      4912      4901      4903      4901      4913
      4901      4914      4901      4915      4903      4905      4903      4916
      4903      4917      4905      4907      4905      4918      4905      4919
      4907      4909      4907      4911      4911      4920      4909      4921
      4922      4909      4923      4909      4924      4911      4925      4911
      4926      4927      4928      4929      4930      4931      4932      4933
      4934      4935      4936      4937      4926      4928      4926      4938
      4926      4939      4926      4940      4928      4930      4928      4941
      4928      4942      4930      4932      4930      4943      4930      4944
      4932      4934      4932      4936      4936      4945      4934      4946
      4947      4934      4948      4934      4949      4936      4950      4936
      4951      4952      4953      4954      4955      4956      4957      4958
      4959      4960      4961      4962      4951      4953      4951      4963
      4951      4964      4951      4965      4953      4955      4953      4966
      4953      4967      4955      4957      4955      4968      4955      4969
      4957      4959      4957      4961      4961      4970      4959      4971
      4972      4959      4973      4959      4974      4961      4975      4961
      4976      4977      4978      4979      4980      4981      4982      4983
      4984      4985      4986      4987      4976      4978      4976      4988
      4976      4989      4976      4990      4978      4980      4978      4991
      4978      4992      4980      4982      4980      4993      4980      4994
      4982      4984      4982      4986      4986      4995      4984      4996
      4997      4984      4998      4984      4999      4986      5000      4986
      5001      5002      5003      5004      5005      5006      5007      5008
      5009      5010      5011      5012      5001      5003      5001      5013
      5001      5014      5001      5015      5003      5005      5003      5016
      5003      5017      5005      5007      5005      5018      5005      5019
      5007      5009      5007      5011      5011      5020      5009      5021
      5022      5009      5023      5009      5024      5011      5025      5011
      5026      5027      5028      5029      5030      5031      5032      5033
      5034      5035      5036      5037      5026      5028      5026      5038
      5026      5039      5026      5040      5028      5030      5028      5041
      5028      5042      5030      5032      5030      5043      5030      5044
      5032      5034      5032      5036      5036      5045      5034      5046
      5047      5034      5048      5034      5049      5036      5050      5036
      5051      5052      5053      5054      5055      5056      5057      5058
      5059      5060      5061      5062      5051      5053      5051      5063
      5051      5064      5051      5065      5053      5055      5053      5066
      5053      5067      5055      5057      5055      5068      5055      5069
      5057      5059      5057      5061      5061      5070      5059      5071
      5072      5059      5073      5059      5074      5061      5075      5061
      5076      5077      5078      5079      5080      5081      5082      5083
      5084      5085      5086      5087      5076      5078      5076      5088
      5076      5089      5076      5090      5078      5080      5078      5091
      5078      5092      5080      5082      5080      5093      5080      5094
      5082      5084      5082      5086      5086      5095      5084      5096
      5097      5084      5098      5084      5099      5086      5100      5086
      5101      5102      5103      5104      5105      5106      5107      5108
      5109      5110      5111      5112      5101      5103      5101      5113
      5101      5114      5101      5115      5103      5105      5103      5116
      5103      5117      5105      5107      5105      5118      5105      5119
      5107      5109      5107      5111      5111      5120      5109      5121
      5122      5109      5123      5109      5124      5111      5125      5111
      5126      5127      5128      5129      5130      5131      5132      5133
      5134      5135      5136      5137      5126      5128      5126      5138
      5126      5139      5126      5140      5128      5130      5128      5141
      5128      5142      5130      5132      5130      5143      5130      5144
      5132      5134      5132      5136      5136      5145      5134      5146
      5147      5134      5148      5134      5149      5136      5150      5136
      5151      5152      5153      5154      5155      5156      5157      5158
      5159      5160      5161      5162      5151      5153      5151      5163
      5151      5164      5151      5165      5153      5155      5153      5166
      5153      5167      5155      5157      5155      5168      5155      5169
      5157      5159      5157      5161      5161      5170      5159      5171
      5172      5159      5173      5159      5174      5161      5175      5161
      5176      5177      5178      5179      5180      5181      5182      5183
      5184      5185      5186      5187      5176      5178      5176      5188
      5176      5189      5176      5190      5178      5180      5178      5191
      5178      5192      5180      5182      5180      5193      5180      5194
      5182      5184      5182      5186      5186      5195      5184      5196
      5197      5184      5198      5184      5199      5186      5200      5186
      5201      5202      5203      5204      5205      5206      5207      5208
      5209      5210      5211      5212      5201      5203      5201      5213
      5201      5214      5201      5215      5203      5205      5203      5216
      5203      5217      5205      5207      5205      5218      5205      5219
      5207      5209      5207      5211      5211      5220      5209      5221
      5222      5209      5223      5209      5224      5211      5225      5211
      5226      5227      5228      5229      5230      5231      5232      5233
      5234      5235      5236      5237      5226      5228      5226      5238
      5226      5239      5226      5240      5228      5230      5228      5241
      5228      5242      5230      5232      5230      5243      5230      5244
      5232      5234      5232      5236      5236      5245      5234      5246
      5247      5234      5248      5234      5249      5236      5250      5236
      5251      5252      5253      5254      5255      5256      5257      5258
      5259      5260      5261      5262      5251      5253      5251      5263
      5251      5264      5251      5265      5253      5255      5253      5266
      5253      5267      5255      5257      5255      5268      5255      5269
      5257      5259      5257      5261      5261      5270      5259      5271
      5272      5259      5273      5259      5274      5261      5275      5261
      5276      5277      5278      5279      5280      5281      5282      5283
      5284      5285      5286      5287      5276      5278      5276      5288
      5276      5289      5276      5290      5278      5280      5278      5291
      5278      5292      5280      5282      5280      5293      5280      5294
      5282      5284      5282      5286      5286      5295      5284      5296
      5297      5284      5298      5284      5299      5286      5300      5286
      5301      5302      5303      5304      5305      5306      5307      5308
      5309      5310      5311      5312      5301      5303      5301      5313
      5301      5314      5301      5315      5303      5305      5303      5316
      5303      5317      5305      5307      5305      5318      5305      5319
      5307      5309      5307      5311      5311      5320      5309      5321
      5322      5309      5323      5309      5324      5311      5325      5311
      5326      5327      5328      5329      5330      5331      5332      5333
      5334      5335      5336      5337      5326      5328      5326      5338
      5326      5339      5326      5340      5328      5330      5328      5341
      5328      5342      5330      5332      5330      5343      5330      5344
      5332      5334      5332      5336      5336      5345      5334      5346
      5347      5334      5348      5334      5349      5336      5350      5336
      5351      5352      5353      5354      5355      5356      5357      5358
      5359      5360      5361      5362      5351      5353      5351      5363
      5351      5364      5351      5365      5353      5355      5353      5366
      5353      5367      5355      5357      5355      5368      5355      5369
      5357      5359      5357      5361      5361      5370      5359      5371
      5372      5359      5373      5359      5374      5361      5375      5361
      5376      5377      5378      5379      5380      5381      5382      5383
      5384      5385      5386      5387      5376      5378      5376      5388
      5376      5389      5376      5390      5378      5380      5378      5391
      5378      5392      5380      5382      5380      5393      5380      5394
      5382      5384      5382      5386      5386      5395      5384      5396
      5397      5384      5398      5384      5399      5386      5400      5386
      5401      5402      5403      5404      5405      5406      5407      5408
      5409      5410      5411      5412      5401      5403      5401      5413
      5401      5414      5401      5415      5403      5405      5403      5416
      5403      5417      5405      5407      5405      5418      5405      5419
      5407      5409      5407      5411      5411      5420      5409      5421
      5422      5409      5423      5409      5424      5411      5425      5411
      5426      5427      5428      5429      5430      5431      5432      5433
      5434      5435      5436      5437      5426      5428      5426      5438
      5426      5439      5426      5440      5428      5430      5428      5441
      5428      5442      5430      5432      5430      5443      5430      5444
      5432      5434      5432      5436      5436      5445      5434      5446
      5447      5434      5448      5434      5449      5436      5450      5436
      5451      5452      5453      5454      5455      5456      5457      5458
      5459      5460      5461      5462      5451      5453      5451      5463
      5451      5464      5451      5465      5453      5455      5453      5466
      5453      5467      5455      5457      5455      5468      5455      5469
      5457      5459      5457      5461      5461      5470      5459      5471
      5472      5459      5473      5459      5474      5461      5475      5461
      5476      5477      5478      5479      5480      5481      5482      5483
      5484      5485      5486      5487      5476      5478      5476      5488
      5476      5489      5476      5490      5478      5480      5478      5491
      5478      5492      5480      5482      5480      5493      5480      5494
      5482      5484      5482      5486      5486      5495      5484      5496
      5497      5484      5498      5484      5499      5486      5500      5486
      5501      5502      5503      5504      5505      5506      5507      5508
      5509      5510      5511      5512      5501      5503      5501      5513
      5501      5514      5501      5515      5503      5505      5503      5516
      5503      5517      5505      5507      5505      5518      5505      5519
      5507      5509      5507      5511      5511      5520      5509      5521
      5522      5509      5523      5509      5524      5511      5525      5511
      5526      5527      5528      5529      5530      5531      5532      5533
      5534      5535      5536      5537      5526      5528      5526      5538
      5526      5539      5526      5540      5528      5530      5528      5541
      5528      5542      5530      5532      5530      5543      5530      5544
      5532      5534      5532      5536      5536      5545      5534      5546
      5547      5534      5548      5534      5549      5536      5550      5536
      5551      5552      5553      5554      5555      5556      5557      5558
      5559      5560      5561      5562      5551      5553      5551      5563
      5551      5564      5551      5565      5553      5555      5553      5566
      5553      5567      5555      5557      5555      5568      5555      5569
      5557      5559      5557      5561      5561      5570      5559      5571
      5572      5559      5573      5559      5574      5561      5575      5561
      5576      5577      5578      5579      5580      5581      5582      5583
      5584      5585      5586      5587      5576      5578      5576      5588
      5576      5589      5576      5590      5578      5580      5578      5591
      5578      5592      5580      5582      5580      5593      5580      5594
      5582      5584      5582      5586      5586      5595      5584      5596
      5597      5584      5598      5584      5599      5586      5600      5586
      5601      5602      5603      5604      5605      5606      5607      5608
      5609      5610      5611      5612      5601      5603      5601      5613
      5601      5614      5601      5615      5603      5605      5603      5616
      5603      5617      5605      5607      5605      5618      5605      5619
      5607      5609      5607      5611      5611      5620      5609      5621
      5622      5609      5623      5609      5624      5611      5625      5611
      5626      5627      5628      5629      5630      5631      5632      5633
      5634      5635      5636      5637      5626      5628      5626      5638
      5626      5639      5626      5640      5628      5630      5628      5641
      5628      5642      5630      5632      5630      5643      5630      5644
      5632      5634      5632      5636      5636      5645      5634      5646
      5647      5634      5648      5634      5649      5636      5650      5636
      5651      5652      5653      5654      5655      5656      5657      5658
      5659      5660      5661      5662      5651      5653      5651      5663
      5651      5664      5651      5665      5653      5655      5653      5666
      5653      5667      5655      5657      5655      5668      5655      5669
      5657      5659      5657      5661      5661      5670      5659      5671
      5672      5659      5673      5659      5674      5661      5675      5661
      5676      5677      5678      5679      5680      5681      5682      5683
      5684      5685      5686      5687      5676      5678      5676      5688
      5676      5689      5676      5690      5678      5680      5678      5691
      5678      5692      5680      5682      5680      5693      5680      5694
      5682      5684      5682      5686      5686      5695      5684      5696
      5697      5684      5698      5684      5699      5686      5700      5686
      5701      5702      5703      5704      5705      5706      5707      5708
      5709      5710      5711      5712      5701      5703      5701      5713
      5701      5714      5701      5715      5703      5705      5703      5716
      5703      5717      5705      5707      5705      5718      5705      5719
      5707      5709      5707      5711      5711      5720      5709      5721
      5722      5709      5723      5709      5724      5711      5725      5711
      5726      5727      5728      5729      5730      5731      5732      5733
      5734      5735      5736      5737      5726      5728      5726      5738
      5726      5739      5726      5740      5728      5730      5728      5741
      5728      5742      5730      5732      5730      5743      5730      5744
      5732      5734      5732      5736      5736      5745      5734      5746
      5747      5734      5748      5734      5749      5736      5750      5736
      5751      5752      5753      5754      5755      5756      5757      5758
      5759      5760      5761      5762      5751      5753      5751      5763
      5751      5764      5751      5765      5753      5755      5753      5766
      5753      5767      5755      5757      5755      5768      5755      5769
      5757      5759      5757      5761      5761      5770      5759      5771
      5772      5759      5773      5759      5774      5761      5775      5761
      5776      5777      5778      5779      5780      5781      5782      5783
      5784      5785      5786      5787      5776      5778      5776      5788
      5776      5789      5776      5790      5778      5780      5778      5791
      5778      5792      5780      5782      5780      5793      5780      5794
      5782      5784      5782      5786      5786      5795      5784      5796
      5797      5784      5798      5784      5799      5786      5800      5786
      5801      5802      5803      5804      5805      5806      5807      5808
      5809      5810      5811      5812      5801      5803      5801      5813
      5801      5814      5801      5815      5803      5805      5803      5816
      5803      5817      5805      5807      5805      5818      5805      5819
      5807      5809      5807      5811      5811      5820      5809      5821
      5822      5809      5823      5809      5824      5811      5825      5811
      5826      5827      5828      5829      5830      5831      5832      5833
      5834      5835      5836      5837      5826      5828      5826      5838
      5826      5839      5826      5840      5828      5830      5828      5841
      5828      5842      5830      5832      5830      5843      5830      5844
      5832      5834      5832      5836      5836      5845      5834      5846
      5847      5834      5848      5834      5849      5836      5850      5836
      5851      5852      5853      5854      5855      5856      5857      5858
      5859      5860      5861      5862      5851      5853      5851      5863
      5851      5864      5851      5865      5853      5855      5853      5866
      5853      5867      5855      5857      5855      5868      5855      5869
      5857      5859      5857      5861      5861      5870      5859      5871
      5872      5859      5873      5859      5874      5861      5875      5861
      5876      5877      5878      5879      5880      5881      5882      5883
      5884      5885      5886      5887      5876      5878      5876      5888
      5876      5889      5876      5890      5878      5880      5878      5891
      5878      5892      5880      5882      5880      5893      5880      5894
      5882      5884      5882      5886      5886      5895      5884      5896
      5897      5884      5898      5884      5899      5886      5900      5886
      5901      5902      5903      5904      5905      5906      5907      5908
      5909      5910      5911      5912      5901      5903      5901      5913
      5901      5914      5901      5915      5903      5905      5903      5916
      5903      5917      5905      5907      5905      5918      5905      5919
      5907      5909      5907      5911      5911      5920      5909      5921
      5922      5909      5923      5909      5924      5911      5925      5911
      5926      5927      5928      5929      5930      5931      5932      5933
      5934      5935      5936      5937      5926      5928      5926      5938
      5926      5939      5926      5940      5928      5930      5928      5941
      5928      5942      5930      5932      5930      5943      5930      5944
      5932      5934      5932      5936      5936      5945      5934      5946
      5947      5934      5948      5934      5949      5936      5950      5936
      5951      5952      5953      5954      5955      5956      5957      5958
      5959      5960      5961      5962      5951      5953      5951      5963
      5951      5964      5951      5965      5953      5955      5953      5966
      5953      5967      5955      5957      5955      5968      5955      5969
      5957      5959      5957      5961      5961      5970      5959      5971
      5972      5959      5973      5959      5974      5961      5975      5961
      5976      5977      5978      5979      5980      5981      5982      5983
      5984      5985      5986      5987      5976      5978      5976      5988
      5976      5989      5976      5990      5978      5980      5978      5991
      5978      5992      5980      5982      5980      5993      5980      5994
      5982      5984      5982      5986      5986      5995      5984      5996
      5997      5984      5998      5984      5999      5986      6000      5986
      6001      6002      6003      6004      6005      6006      6007      6008
      6009      6010      6011      6012      6001      6003      6001      6013
      6001      6014      6001      6015      6003      6005      6003      6016
      6003      6017      6005      6007      6005      6018      6005      6019
      6007      6009      6007      6011      6011      6020      6009      6021
      6022      6009      6023      6009      6024      6011      6025      6011
      6026      6027      6028      6029      6030      6031      6032      6033
      6034      6035      6036      6037      6026      6028      6026      6038
      6026      6039      6026      6040      6028      6030      6028      6041
      6028      6042      6030      6032      6030      6043      6030      6044
      6032      6034      6032      6036      6036      6045      6034      6046
      6047      6034      6048      6034      6049      6036      6050      6036
      6051      6052      6053      6054      6055      6056      6057      6058
      6059      6060      6061      6062      6051      6053      6051      6063
      6051      6064      6051      6065      6053      6055      6053      6066
      6053      6067      6055      6057      6055      6068      6055      6069
      6057      6059      6057      6061      6061      6070      6059      6071
      6072      6059      6073      6059      6074      6061      6075      6061
      6076      6077      6081      6082      6083      6084      6086      6087
      6089      6090      6092      6093      6076      6081      6076      6078
      6076      6079      6076      6080      6081      6083      6081      6089
      6083      6086      6083      6085      6086      6088      6086      6092
      6092      6089      6089      6091      6092      6094      6095      6092
      6096      6097      6101      6102      6103      6104      6106      6107
      6109      6110      6112      6113      6096      6101      6096      6098
      6096      6099      6096      6100      6101      6103      6101      6109
      6103      6106      6103      6105      6106      6108      6106      6112
      6112      6109      6109      6111      6112      6114      6115      6112
      6116      6117      6121      6122      6123      6124      6126      6127
      6129      6130      6132      6133      6116      6121      6116      6118
      6116      6119      6116      6120      6121      6123      6121      6129
      6123      6126      6123      6125      6126      6128      6126      6132
      6132      6129      6129      6131      6132      6134      6135      6132
      6136      6137      6141      6142      6143      6144      6146      6147
      6149      6150      6152      6153      6136      6141      6136      6138
      6136      6139      6136      6140      6141      6143      6141      6149
      6143      6146      6143      6145      6146      6148      6146      6152
      6152      6149      6149      6151      6152      6154      6155      6152
      6156      6157      6161      6162      6163      6164      6166      6167
      6169      6170      6172      6173      6156      6161      6156      6158
      6156      6159      6156      6160      6161      6163      6161      6169
      6163      6166      6163      6165      6166      6168      6166      6172
      6172      6169      6169      6171      6172      6174      6175      6172
      6176      6177      6181      6182      6183      6184      6186      6187
      6189      6190      6192      6193      6176      6181      6176      6178
      6176      6179      6176      6180      6181      6183      6181      6189
      6183      6186      6183      6185      6186      6188      6186      6192
      6192      6189      6189      6191      6192      6194      6195      6192
      6196      6197      6201      6202      6203      6204      6206      6207
      6209      6210      6212      6213      6196      6201      6196      6198
      6196      6199      6196      6200      6201      6203      6201      6209
      6203      6206      6203      6205      6206      6208      6206      6212
      6212      6209      6209      6211      6212      6214      6215      6212
      6216      6217      6221      6222      6223      6224      6226      6227
      6229      6230      6232      6233      6216      6221      6216      6218
      6216      6219      6216      6220      6221      6223      6221      6229
      6223      6226      6223      6225      6226      6228      6226      6232
      6232      6229      6229      6231      6232      6234      6235      6232
      6236      6237      6241      6242      6243      6244      6246      6247
      6249      6250      6252      6253      6236      6241      6236      6238
      6236      6239      6236      6240      6241      6243      6241      6249
      6243      6246      6243      6245      6246      6248      6246      6252
      6252      6249      6249      6251      6252      6254      6255      6252
      6256      6257      6261      6262      6263      6264      6266      6267
      6269      6270      6272      6273      6256      6261      6256      6258
      6256      6259      6256      6260      6261      6263      6261      6269
      6263      6266      6263      6265      6266      6268      6266      6272
      6272      6269      6269      6271      6272      6274      6275      6272
      6276      6277      6281      6282      6283      6284      6286      6287
      6289      6290      6292      6293      6276      6281      6276      6278
      6276      6279      6276      6280      6281      6283      6281      6289
      6283      6286      6283      6285      6286      6288      6286      6292
      6292      6289      6289      6291      6292      6294      6295      6292
      6296      6297      6301      6302      6303      6304      6306      6307
      6309      6310      6312      6313      6296      6301      6296      6298
      6296      6299      6296      6300      6301      6303      6301      6309
      6303      6306      6303      6305      6306      6308      6306      6312
      6312      6309      6309      6311      6312      6314      6315      6312
      6316      6317      6321      6322      6323      6324      6326      6327
      6329      6330      6332      6333      6316      6321      6316      6318
      6316      6319      6316      6320      6321      6323      6321      6329
      6323      6326      6323      6325      6326      6328      6326      6332
      6332      6329      6329      6331      6332      6334      6335      6332
      6336      6337      6341      6342      6343      6344      6346      6347
      6349      6350      6352      6353      6336      6341      6336      6338
      6336      6339      6336      6340      6341      6343      6341      6349
      6343      6346      6343      6345      6346      6348      6346      6352
      6352      6349      6349      6351      6352      6354      6355      6352
      6356      6357      6361      6362      6363      6364      6366      6367
      6369      6370      6372      6373      6356      6361      6356      6358
      6356      6359      6356      6360      6361      6363      6361      6369
      6363      6366      6363      6365      6366      6368      6366      6372
      6372      6369      6369      6371      6372      6374      6375      6372
      6376      6377      6381      6382      6383      6384      6386      6387
      6389      6390      6392      6393      6376      6381      6376      6378
      6376      6379      6376      6380      6381      6383      6381      6389
      6383      6386      6383      6385      6386      6388      6386      6392
      6392      6389      6389      6391      6392      6394      6395      6392
      6396      6397      6401      6402      6403      6404      6406      6407
      6409      6410      6412      6413      6396      6401      6396      6398
      6396      6399      6396      6400      6401      6403      6401      6409
      6403      6406      6403      6405      6406      6408      6406      6412
      6412      6409      6409      6411      6412      6414      6415      6412
      6416      6417      6421      6422      6423      6424      6426      6427
      6429      6430      6432      6433      6416      6421      6416      6418
      6416      6419      6416      6420      6421      6423      6421      6429
      6423      6426      6423      6425      6426      6428      6426      6432
      6432      6429      6429      6431      6432      6434      6435      6432
      6436      6437      6441      6442      6443      6444      6446      6447
      6449      6450      6452      6453      6436      6441      6436      6438
      6436      6439      6436      6440      6441      6443      6441      6449
      6443      6446      6443      6445      6446      6448      6446      6452
      6452      6449      6449      6451      6452      6454      6455      6452
      6456      6457      6461      6462      6463      6464      6466      6467
      6469      6470      6472      6473      6456      6461      6456      6458
      6456      6459      6456      6460      6461      6463      6461      6469
      6463      6466      6463      6465      6466      6468      6466      6472
      6472      6469      6469      6471      6472      6474      6475      6472
      6476      6477      6481      6482      6483      6484      6486      6487
      6489      6490      6492      6493      6476      6481      6476      6478
      6476      6479      6476      6480      6481      6483      6481      6489
      6483      6486      6483      6485      6486      6488      6486      6492
      6492      6489      6489      6491      6492      6494      6495      6492
      6496      6497      6501      6502      6503      6504      6506      6507
      6509      6510      6512      6513      6496      6501      6496      6498
      6496      6499      6496      6500      6501      6503      6501      6509
      6503      6506      6503      6505      6506      6508      6506      6512
      6512      6509      6509      6511      6512      6514      6515      6512
      6516      6517      6521      6522      6523      6524      6526      6527
      6529      6530      6532      6533      6516      6521      6516      6518
      6516      6519      6516      6520      6521      6523      6521      6529
      6523      6526      6523      6525      6526      6528      6526      6532
      6532      6529      6529      6531      6532      6534      6535      6532
      6536      6537      6541      6542      6543      6544      6546      6547
      6549      6550      6552      6553      6536      6541      6536      6538
      6536      6539      6536      6540      6541      6543      6541      6549
      6543      6546      6543      6545      6546      6548      6546      6552
      6552      6549      6549      6551      6552      6554      6555      6552
      6556      6557      6561      6562      6563      6564      6566      6567
      6569      6570      6572      6573      6556      6561      6556      6558
      6556      6559      6556      6560      6561      6563      6561      6569
      6563      6566      6563      6565      6566      6568      6566      6572
      6572      6569      6569      6571      6572      6574      6575      6572
      6576      6577      6581      6582      6583      6584      6586      6587
      6589      6590      6592      6593      6576      6581      6576      6578
      6576      6579      6576      6580      6581      6583      6581      6589
      6583      6586      6583      6585      6586      6588      6586      6592
      6592      6589      6589      6591      6592      6594      6595      6592
      6596      6597      6601      6602      6603      6604      6606      6607
      6609      6610      6612      6613      6596      6601      6596      6598
      6596      6599      6596      6600      6601      6603      6601      6609
      6603      6606      6603      6605      6606      6608      6606      6612
      6612      6609      6609      6611      6612      6614      6615      6612
      6616      6617      6621      6622      6623      6624      6626      6627
      6629      6630      6632      6633      6616      6621      6616      6618
      6616      6619      6616      6620      6621      6623      6621      6629
      6623      6626      6623      6625      6626      6628      6626      6632
      6632      6629      6629      6631      6632      6634      6635      6632
      6636      6637      6641      6642      6643      6644      6646      6647
      6649      6650      6652      6653      6636      6641      6636      6638
      6636      6639      6636      6640      6641      6643      6641      6649
      6643      6646      6643      6645      6646      6648      6646      6652
      6652      6649      6649      6651      6652      6654      6655      6652
      6656      6657      6661      6662      6663      6664      6666      6667
      6669      6670      6672      6673      6656      6661      6656      6658
      6656      6659      6656      6660      6661      6663      6661      6669
      6663      6666      6663      6665      6666      6668      6666      6672
      6672      6669      6669      6671      6672      6674      6675      6672
      6676      6677      6681      6682      6683      6684      6686      6687
      6689      6690      6692      6693      6676      6681      6676      6678
      6676      6679      6676      6680      6681      6683      6681      6689
      6683      6686      6683      6685      6686      6688      6686      6692
      6692      6689      6689      6691      6692      6694      6695      6692
      6696      6697      6701      6702      6703      6704      6706      6707
      6709      6710      6712      6713      6696      6701      6696      6698
      6696      6699      6696      6700      6701      6703      6701      6709
      6703      6706      6703      6705      6706      6708      6706      6712
      6712      6709      6709      6711      6712      6714      6715      6712
      6716      6717      6721      6722      6723      6724      6726      6727
      6729      6730      6732      6733      6716      6721      6716      6718
      6716      6719      6716      6720      6721      6723      6721      6729
      6723      6726      6723      6725      6726      6728      6726      6732
      6732      6729      6729      6731      6732      6734      6735      6732
      6736      6737      6741      6742      6743      6744      6746      6747
      6749      6750      6752      6753      6736      6741      6736      6738
      6736      6739      6736      6740      6741      6743      6741      6749
      6743      6746      6743      6745      6746      6748      6746      6752
      6752      6749      6749      6751      6752      6754      6755      6752
      6756      6757      6761      6762      6763      6764      6766      6767
      6769      6770      6772      6773      6756      6761      6756      6758
      6756      6759      6756      6760      6761      6763      6761      6769
      6763      6766      6763      6765      6766      6768      6766      6772
      6772      6769      6769      6771      6772      6774      6775      6772
      6776      6777      6781      6782      6783      6784      6786      6787
      6789      6790      6792      6793      6776      6781      6776      6778
      6776      6779      6776      6780      6781      6783      6781      6789
      6783      6786      6783      6785      6786      6788      6786      6792
      6792      6789      6789      6791      6792      6794      6795      6792
      6796      6797      6801      6802      6803      6804      6806      6807
      6809      6810      6812      6813      6796      6801      6796      6798
      6796      6799      6796      6800      6801      6803      6801      6809
      6803      6806      6803      6805      6806      6808      6806      6812
      6812      6809      6809      6811      6812      6814      6815      6812
      6816      6817      6821      6822      6823      6824      6826      6827
      6829      6830      6832      6833      6816      6821      6816      6818
      6816      6819      6816      6820      6821      6823      6821      6829
      6823      6826      6823      6825      6826      6828      6826      6832
      6832      6829      6829      6831      6832      6834      6835      6832
      6836      6837      6841      6842      6843      6844      6846      6847
      6849      6850      6852      6853      6836      6841      6836      6838
      6836      6839      6836      6840      6841      6843      6841      6849
      6843      6846      6843      6845      6846      6848      6846      6852
      6852      6849      6849      6851      6852      6854      6855      6852
      6856      6857      6861      6862      6863      6864      6866      6867
      6869      6870      6872      6873      6856      6861      6856      6858
      6856      6859      6856      6860      6861      6863      6861      6869
      6863      6866      6863      6865      6866      6868      6866      6872
      6872      6869      6869      6871      6872      6874      6875      6872
      6876      6877      6881      6882      6883      6884      6886      6887
      6889      6890      6892      6893      6876      6881      6876      6878
      6876      6879      6876      6880      6881      6883      6881      6889
      6883      6886      6883      6885      6886      6888      6886      6892
      6892      6889      6889      6891      6892      6894      6895      6892
      6896      6897      6901      6902      6903      6904      6906      6907
      6909      6910      6912      6913      6896      6901      6896      6898
      6896      6899      6896      6900      6901      6903      6901      6909
      6903      6906      6903      6905      6906      6908      6906      6912
      6912      6909      6909      6911      6912      6914      6915      6912
      6916      6917      6921      6922      6923      6924      6926      6927
      6929      6930      6932      6933      6916      6921      6916      6918
      6916      6919      6916      6920      6921      6923      6921      6929
      6923      6926      6923      6925      6926      6928      6926      6932
      6932      6929      6929      6931      6932      6934      6935      6932
      6936      6937      6941      6942      6943      6944      6946      6947
      6949      6950      6952      6953      6936      6941      6936      6938
      6936      6939      6936      6940      6941      6943      6941      6949
      6943      6946      6943      6945      6946      6948      6946      6952
      6952      6949      6949      6951      6952      6954      6955      6952
      6956      6957      6961      6962      6963      6964      6966      6967
      6969      6970      6972      6973      6956      6961      6956      6958
      6956      6959      6956      6960      6961      6963      6961      6969
      6963      6966      6963      6965      6966      6968      6966      6972
      6972      6969      6969      6971      6972      6974      6975      6972
      6976      6977      6981      6982      6983      6984      6986      6987
      6989      6990      6992      6993      6976      6981      6976      6978
      6976      6979      6976      6980      6981      6983      6981      6989
      6983      6986      6983      6985      6986      6988      6986      6992
      6992      6989      6989      6991      6992      6994      6995      6992
      6996      6997      7001      7002      7003      7004      7006      7007
      7009      7010      7012      7013      6996      7001      6996      6998
      6996      6999      6996      7000      7001      7003      7001      7009
      7003      7006      7003      7005      7006      7008      7006      7012
      7012      7009      7009      7011      7012      7014      7015      7012
      7016      7017      7021      7022      7023      7024      7026      7027
      7029      7030      7032      7033      7016      7021      7016      7018
      7016      7019      7016      7020      7021      7023      7021      7029
      7023      7026      7023      7025      7026      7028      7026      7032
      7032      7029      7029      7031      7032      7034      7035      7032
      7036      7037      7041      7042      7043      7044      7046      7047
      7049      7050      7052      7053      7036      7041      7036      7038
      7036      7039      7036      7040      7041      7043      7041      7049
      7043      7046      7043      7045      7046      7048      7046      7052
      7052      7049      7049      7051      7052      7054      7055      7052
      7056      7057      7061      7062      7063      7064      7066      7067
      7069      7070      7072      7073      7056      7061      7056      7058
      7056      7059      7056      7060      7061      7063      7061      7069
      7063      7066      7063      7065      7066      7068      7066      7072
      7072      7069      7069      7071      7072      7074      7075      7072
      7076      7077      7081      7082      7083      7084      7086      7087
      7089      7090      7092      7093      7076      7081      7076      7078
      7076      7079      7076      7080      7081      7083      7081      7089
      7083      7086      7083      7085      7086      7088      7086      7092
      7092      7089      7089      7091      7092      7094      7095      7092
      7096      7097      7101      7102      7103      7104      7106      7107
      7109      7110      7112      7113      7096      7101      7096      7098
      7096      7099      7096      7100      7101      7103      7101      7109
      7103      7106      7103      7105      7106      7108      7106      7112
      7112      7109      7109      7111      7112      7114      7115      7112
      7116      7117      7121      7122      7123      7124      7126      7127
      7129      7130      7132      7133      7116      7121      7116      7118
      7116      7119      7116      7120      7121      7123      7121      7129
      7123      7126      7123      7125      7126      7128      7126      7132
      7132      7129      7129      7131      7132      7134      7135      7132
      7136      7137      7141      7142      7143      7144      7146      7147
      7149      7150      7152      7153      7136      7141      7136      7138
      7136      7139      7136      7140      7141      7143      7141      7149
      7143      7146      7143      7145      7146      7148      7146      7152
      7152      7149      7149      7151      7152      7154      7155      7152
      7156      7157      7161      7162      7163      7164      7166      7167
      7169      7170      7172      7173      7156      7161      7156      7158
      7156      7159      7156      7160      7161      7163      7161      7169
      7163      7166      7163      7165      7166      7168      7166      7172
      7172      7169      7169      7171      7172      7174      7175      7172
      7176      7177      7181      7182      7183      7184      7186      7187
      7189      7190      7192      7193      7176      7181      7176      7178
      7176      7179      7176      7180      7181      7183      7181      7189
      7183      7186      7183      7185      7186      7188      7186      7192
      7192      7189      7189      7191      7192      7194      7195      7192
      7196      7197      7201      7202      7203      7204      7206      7207
      7209      7210      7212      7213      7196      7201      7196      7198
      7196      7199      7196      7200      7201      7203      7201      7209
      7203      7206      7203      7205      7206      7208      7206      7212
      7212      7209      7209      7211      7212      7214      7215      7212
      7216      7217      7221      7222      7223      7224      7226      7227
      7229      7230      7232      7233      7216      7221      7216      7218
      7216      7219      7216      7220      7221      7223      7221      7229
      7223      7226      7223      7225      7226      7228      7226      7232
      7232      7229      7229      7231      7232      7234      7235      7232
      7236      7237      7241      7242      7243      7244      7246      7247
      7249      7250      7252      7253      7236      7241      7236      7238
      7236      7239      7236      7240      7241      7243      7241      7249
      7243      7246      7243      7245      7246      7248      7246      7252
      7252      7249      7249      7251      7252      7254      7255      7252
      7256      7257      7261      7262      7263      7264      7266      7267
      7269      7270      7272      7273      7256      7261      7256      7258
      7256      7259      7256      7260      7261      7263      7261      7269
      7263      7266      7263      7265      7266      7268      7266      7272
      7272      7269      7269      7271      7272      7274      7275      7272
      7276      7277      7281      7282      7283      7284      7286      7287
      7289      7290      7292      7293      7276      7281      7276      7278
      7276      7279      7276      7280      7281      7283      7281      7289
      7283      7286      7283      7285      7286      7288      7286      7292
      7292      7289      7289      7291      7292      7294      7295      7292
      7296      7297      7301      7302      7303      7304      7306      7307
      7309      7310      7312      7313      7296      7301      7296      7298
      7296      7299      7296      7300      7301      7303      7301      7309
      7303      7306      7303      7305      7306      7308      7306      7312
      7312      7309      7309      7311      7312      7314      7315      7312
      7316      7317      7321      7322      7323      7324      7326      7327
      7329      7330      7332      7333      7316      7321      7316      7318
      7316      7319      7316      7320      7321      7323      7321      7329
      7323      7326      7323      7325      7326      7328      7326      7332
      7332      7329      7329      7331      7332      7334      7335      7332
      7336      7337      7341      7342      7343      7344      7346      7347
      7349      7350      7352      7353      7336      7341      7336      7338
      7336      7339      7336      7340      7341      7343      7341      7349
      7343      7346      7343      7345      7346      7348      7346      7352
      7352      7349      7349      7351      7352      7354      7355      7352
      7356      7357      7361      7362      7363      7364      7366      7367
      7369      7370      7372      7373      7356      7361      7356      7358
      7356      7359      7356      7360      7361      7363      7361      7369
      7363      7366      7363      7365      7366      7368      7366      7372
      7372      7369      7369      7371      7372      7374      7375      7372
      7376      7377      7381      7382      7383      7384      7386      7387
      7389      7390      7392      7393      7376      7381      7376      7378
      7376      7379      7376      7380      7381      7383      7381      7389
      7383      7386      7383      7385      7386      7388      7386      7392
      7392      7389      7389      7391      7392      7394      7395      7392
      7396      7397      7401      7402      7403      7404      7406      7407
      7409      7410      7412      7413      7396      7401      7396      7398
      7396      7399      7396      7400      7401      7403      7401      7409
      7403      7406      7403      7405      7406      7408      7406      7412
      7412      7409      7409      7411      7412      7414      7415      7412
      7416      7417      7421      7422      7423      7424      7426      7427
      7429      7430      7432      7433      7416      7421      7416      7418
      7416      7419      7416      7420      7421      7423      7421      7429
      7423      7426      7423      7425      7426      7428      7426      7432
      7432      7429      7429      7431      7432      7434      7435      7432
      7436      7437      7441      7442      7443      7444      7446      7447
      7449      7450      7452      7453      7436      7441      7436      7438
      7436      7439      7436      7440      7441      7443      7441      7449
      7443      7446      7443      7445      7446      7448      7446      7452
      7452      7449      7449      7451      7452      7454      7455      7452
      7456      7457      7461      7462      7463      7464      7466      7467
      7469      7470      7472      7473      7456      7461      7456      7458
      7456      7459      7456      7460      7461      7463      7461      7469
      7463      7466      7463      7465      7466      7468      7466      7472
      7472      7469      7469      7471      7472      7474      7475      7472
      7476      7477      7481      7482      7483      7484      7486      7487
      7489      7490      7492      7493      7476      7481      7476      7478
      7476      7479      7476      7480      7481      7483      7481      7489
      7483      7486      7483      7485      7486      7488      7486      7492
      7492      7489      7489      7491      7492      7494      7495      7492
      7496      7497      7501      7502      7503      7504      7506      7507
      7509      7510      7512      7513      7496      7501      7496      7498
      7496      7499      7496      7500      7501      7503      7501      7509
      7503      7506      7503      7505      7506      7508      7506      7512
      7512      7509      7509      7511      7512      7514      7515      7512
      7516      7517      7521      7522      7523      7524      7526      7527
      7529      7530      7532      7533      7516      7521      7516      7518
      7516      7519      7516      7520      7521      7523      7521      7529
      7523      7526      7523      7525      7526      7528      7526      7532
      7532      7529      7529      7531      7532      7534      7535      7532
      7536      7537      7541      7542      7543      7544      7546      7547
      7549      7550      7552      7553      7536      7541      7536      7538
      7536      7539      7536      7540      7541      7543      7541      7549
      7543      7546      7543      7545      7546      7548      7546      7552
      7552      7549      7549      7551      7552      7554      7555      7552
      7556      7557      7561      7562      7563      7564      7566      7567
      7569      7570      7572      7573      7556      7561      7556      7558
      7556      7559      7556      7560      7561      7563      7561      7569
      7563      7566      7563      7565      7566      7568      7566      7572
      7572      7569      7569      7571      7572      7574      7575      7572
      7576      7577      7581      7582      7583      7584      7586      7587
      7589      7590      7592      7593      7576      7581      7576      7578
      7576      7579      7576      7580      7581      7583      7581      7589
      7583      7586      7583      7585      7586      7588      7586      7592
      7592      7589      7589      7591      7592      7594      7595      7592
      7596      7597      7601      7602      7603      7604      7606      7607
      7609      7610      7612      7613      7596      7601      7596      7598
      7596      7599      7596      7600      7601      7603      7601      7609
      7603      7606      7603      7605      7606      7608      7606      7612
      7612      7609      7609      7611      7612      7614      7615      7612
      7616      7617      7621      7622      7623      7624      7626      7627
      7629      7630      7632      7633      7616      7621      7616      7618
      7616      7619      7616      7620      7621      7623      7621      7629
      7623      7626      7623      7625      7626      7628      7626      7632
      7632      7629      7629      7631      7632      7634      7635      7632
      7636      7637      7641      7642      7643      7644      7646      7647
      7649      7650      7652      7653      7636      7641      7636      7638
      7636      7639      7636      7640      7641      7643      7641      7649
      7643      7646      7643      7645      7646      7648      7646      7652
      7652      7649      7649      7651      7652      7654      7655      7652
      7656      7657      7661      7662      7663      7664      7666      7667
      7669      7670      7672      7673      7656      7661      7656      7658
      7656      7659      7656      7660      7661      7663      7661      7669
      7663      7666      7663      7665      7666      7668      7666      7672
      7672      7669      7669      7671      7672      7674      7675      7672
      7676      7677      7681      7682      7683      7684      7686      7687
      7689      7690      7692      7693      7676      7681      7676      7678
      7676      7679      7676      7680      7681      7683      7681      7689
      7683      7686      7683      7685      7686      7688      7686      7692
      7692      7689      7689      7691      7692      7694      7695      7692
      7696      7697      7701      7702      7703      7704      7706      7707
      7709      7710      7712      7713      7696      7701      7696      7698
      7696      7699      7696      7700      7701      7703      7701      7709
      7703      7706      7703      7705      7706      7708      7706      7712
      7712      7709      7709      7711      7712      7714      7715      7712
      7716      7717      7721      7722      7723      7724      7726      7727
      7729      7730      7732      7733      7716      7721      7716      7718
      7716      7719      7716      7720      7721      7723      7721      7729
      7723      7726      7723      7725      7726      7728      7726      7732
      7732      7729      7729      7731      7732      7734      7735      7732
      7736      7737      7741      7742      7743      7744      7746      7747
      7749      7750      7752      7753      7736      7741      7736      7738
      7736      7739      7736      7740      7741      7743      7741      7749
      7743      7746      7743      7745      7746      7748      7746      7752
      7752      7749      7749      7751      7752      7754      7755      7752
      7756      7757      7761      7762      7763      7764      7766      7767
      7769      7770      7772      7773      7756      7761      7756      7758
      7756      7759      7756      7760      7761      7763      7761      7769
      7763      7766      7763      7765      7766      7768      7766      7772
      7772      7769      7769      7771      7772      7774      7775      7772
      7776      7777      7781      7782      7783      7784      7786      7787
      7789      7790      7792      7793      7776      7781      7776      7778
      7776      7779      7776      7780      7781      7783      7781      7789
      7783      7786      7783      7785      7786      7788      7786      7792
      7792      7789      7789      7791      7792      7794      7795      7792
      7796      7797      7801      7802      7803      7804      7806      7807
      7809      7810      7812      7813      7796      7801      7796      7798
      7796      7799      7796      7800      7801      7803      7801      7809
      7803      7806      7803      7805      7806      7808      7806      7812
      7812      7809      7809      7811      7812      7814      7815      7812
      7816      7817      7821      7822      7823      7824      7826      7827
      7829      7830      7832      7833      7816      7821      7816      7818
      7816      7819      7816      7820      7821      7823      7821      7829
      7823      7826      7823      7825      7826      7828      7826      7832
      7832      7829      7829      7831      7832      7834      7835      7832
      7836      7837      7841      7842      7843      7844      7846      7847
      7849      7850      7852      7853      7836      7841      7836      7838
      7836      7839      7836      7840      7841      7843      7841      7849
      7843      7846      7843      7845      7846      7848      7846      7852
      7852      7849      7849      7851      7852      7854      7855      7852
      7856      7857      7861      7862      7863      7864      7866      7867
      7869      7870      7872      7873      7856      7861      7856      7858
      7856      7859      7856      7860      7861      7863      7861      7869
      7863      7866      7863      7865      7866      7868      7866      7872
      7872      7869      7869      7871      7872      7874      7875      7872
      7876      7877      7881      7882      7883      7884      7886      7887
      7889      7890      7892      7893      7876      7881      7876      7878
      7876      7879      7876      7880      7881      7883      7881      7889
      7883      7886      7883      7885      7886      7888      7886      7892
      7892      7889      7889      7891      7892      7894      7895      7892
      7896      7897      7901      7902      7903      7904      7906      7907
      7909      7910      7912      7913      7896      7901      7896      7898
      7896      7899      7896      7900      7901      7903      7901      7909
      7903      7906      7903      7905      7906      7908      7906      7912
      7912      7909      7909      7911      7912      7914      7915      7912
      7916      7917      7921      7922      7923      7924      7926      7927
      7929      7930      7932      7933      7916      7921      7916      7918
      7916      7919      7916      7920      7921      7923      7921      7929
      7923      7926      7923      7925      7926      7928      7926      7932
      7932      7929      7929      7931      7932      7934      7935      7932
      7936      7937      7941      7942      7943      7944      7946      7947
      7949      7950      7952      7953      7936      7941      7936      7938
      7936      7939      7936      7940      7941      7943      7941      7949
      7943      7946      7943      7945      7946      7948      7946      7952
      7952      7949      7949      7951      7952      7954      7955      7952
      7956      7957      7961      7962      7963      7964      7966      7967
      7969      7970      7972      7973      7956      7961      7956      7958
      7956      7959      7956      7960      7961      7963      7961      7969
      7963      7966      7963      7965      7966      7968      7966      7972
      7972      7969      7969      7971      7972      7974      7975      7972
      7976      7977      7981      7982      7983      7984      7986      7987
      7989      7990      7992      7993      7976      7981      7976      7978
      7976      7979      7976      7980      7981      7983      7981      7989
      7983      7986      7983      7985      7986      7988      7986      7992
      7992      7989      7989      7991      7992      7994      7995      7992
      7996      7997      8001      8002      8003      8004      8006      8007
      8009      8010      8012      8013      7996      8001      7996      7998
      7996      7999      7996      8000      8001      8003      8001      8009
      8003      8006      8003      8005      8006      8008      8006      8012
      8012      8009      8009      8011      8012      8014      8015      8012
      8016      8017      8021      8022      8023      8024      8026      8027
      8029      8030      8032      8033      8016      8021      8016      8018
      8016      8019      8016      8020      8021      8023      8021      8029
      8023      8026      8023      8025      8026      8028      8026      8032
      8032      8029      8029      8031      8032      8034      8035      8032
      8036      8037      8041      8042      8043      8044      8046      8047
      8049      8050      8052      8053      8036      8041      8036      8038
      8036      8039      8036      8040      8041      8043      8041      8049
      8043      8046      8043      8045      8046      8048      8046      8052
      8052      8049      8049      8051      8052      8054      8055      8052
      8056      8057      8061      8062      8063      8064      8066      8067
      8069      8070      8072      8073      8056      8061      8056      8058
      8056      8059      8056      8060      8061      8063      8061      8069
      8063      8066      8063      8065      8066      8068      8066      8072
      8072      8069      8069      8071      8072      8074      8075      8072
      8076      8077      8081      8082      8083      8084      8086      8087
      8089      8090      8092      8093      8076      8081      8076      8078
      8076      8079      8076      8080      8081      8083      8081      8089
      8083      8086      8083      8085      8086      8088      8086      8092
      8092      8089      8089      8091      8092      8094      8095      8092
      8096      8097      8101      8102      8103      8104      8106      8107
      8109      8110      8112      8113      8096      8101      8096      8098
      8096      8099      8096      8100      8101      8103      8101      8109
      8103      8106      8103      8105      8106      8108      8106      8112
      8112      8109      8109      8111      8112      8114      8115      8112
      8116      8117      8121      8122      8123      8124      8126      8127
      8129      8130      8132      8133      8116      8121      8116      8118
      8116      8119      8116      8120      8121      8123      8121      8129
      8123      8126      8123      8125      8126      8128      8126      8132
      8132      8129      8129      8131      8132      8134      8135      8132
      8136      8137      8141      8142      8143      8144      8146      8147
      8149      8150      8152      8153      8136      8141      8136      8138
      8136      8139      8136      8140      8141      8143      8141      8149
      8143      8146      8143      8145      8146      8148      8146      8152
      8152      8149      8149      8151      8152      8154      8155      8152
      8156      8157      8161      8162      8163      8164      8166      8167
      8169      8170      8172      8173      8156      8161      8156      8158
      8156      8159      8156      8160      8161      8163      8161      8169
      8163      8166      8163      8165      8166      8168      8166      8172
      8172      8169      8169      8171      8172      8174      8175      8172
      8176      8177      8181      8182      8183      8184      8186      8187
      8189      8190      8192      8193      8176      8181      8176      8178
      8176      8179      8176      8180      8181      8183      8181      8189
      8183      8186      8183      8185      8186      8188      8186      8192
      8192      8189      8189      8191      8192      8194      8195      8192
      8196      8197      8201      8202      8203      8204      8206      8207
      8209      8210      8212      8213      8196      8201      8196      8198
      8196      8199      8196      8200      8201      8203      8201      8209
      8203      8206      8203      8205      8206      8208      8206      8212
      8212      8209      8209      8211      8212      8214      8215      8212
      8216      8217      8221      8222      8223      8224      8226      8227
      8229      8230      8232      8233      8216      8221      8216      8218
      8216      8219      8216      8220      8221      8223      8221      8229
      8223      8226      8223      8225      8226      8228      8226      8232
      8232      8229      8229      8231      8232      8234      8235      8232
      8236      8237      8241      8242      8243      8244      8246      8247
      8249      8250      8252      8253      8236      8241      8236      8238
      8236      8239      8236      8240      8241      8243      8241      8249
      8243      8246      8243      8245      8246      8248      8246      8252
      8252      8249      8249      8251      8252      8254      8255      8252
      8256      8257      8261      8262      8263      8264      8266      8267
      8269      8270      8272      8273      8256      8261      8256      8258
      8256      8259      8256      8260      8261      8263      8261      8269
      8263      8266      8263      8265      8266      8268      8266      8272
      8272      8269      8269      8271      8272      8274      8275      8272
      8276      8277      8281      8282      8283      8284      8286      8287
      8289      8290      8292      8293      8276      8281      8276      8278
      8276      8279      8276      8280      8281      8283      8281      8289
      8283      8286      8283      8285      8286      8288      8286      8292
      8292      8289      8289      8291      8292      8294      8295      8292
      8296      8297      8301      8302      8303      8304      8306      8307
      8309      8310      8312      8313      8296      8301      8296      8298
      8296      8299      8296      8300      8301      8303      8301      8309
      8303      8306      8303      8305      8306      8308      8306      8312
      8312      8309      8309      8311      8312      8314      8315      8312
      8316      8317      8321      8322      8323      8324      8326      8327
      8329      8330      8332      8333      8316      8321      8316      8318
      8316      8319      8316      8320      8321      8323      8321      8329
      8323      8326      8323      8325      8326      8328      8326      8332
      8332      8329      8329      8331      8332      8334      8335      8332
      8336      8337      8341      8342      8343      8344      8346      8347
      8349      8350      8352      8353      8336      8341      8336      8338
      8336      8339      8336      8340      8341      8343      8341      8349
      8343      8346      8343      8345      8346      8348      8346      8352
      8352      8349      8349      8351      8352      8354      8355      8352
      8356      8357      8361      8362      8363      8364      8366      8367
      8369      8370      8372      8373      8356      8361      8356      8358
      8356      8359      8356      8360      8361      8363      8361      8369
      8363      8366      8363      8365      8366      8368      8366      8372
      8372      8369      8369      8371      8372      8374      8375      8372
      8376      8377      8381      8382      8383      8384      8386      8387
      8389      8390      8392      8393      8376      8381      8376      8378
      8376      8379      8376      8380      8381      8383      8381      8389
      8383      8386      8383      8385      8386      8388      8386      8392
      8392      8389      8389      8391      8392      8394      8395      8392
      8396      8397      8401      8402      8403      8404      8406      8407
      8409      8410      8412      8413      8396      8401      8396      8398
      8396      8399      8396      8400      8401      8403      8401      8409
      8403      8406      8403      8405      8406      8408      8406      8412
      8412      8409      8409      8411      8412      8414      8415      8412
      8416      8417      8421      8422      8423      8424      8426      8427
      8429      8430      8432      8433      8416      8421      8416      8418
      8416      8419      8416      8420      8421      8423      8421      8429
      8423      8426      8423      8425      8426      8428      8426      8432
      8432      8429      8429      8431      8432      8434      8435      8432
      8436      8437      8441      8442      8443      8444      8446      8447
      8449      8450      8452      8453      8436      8441      8436      8438
      8436      8439      8436      8440      8441      8443      8441      8449
      8443      8446      8443      8445      8446      8448      8446      8452
      8452      8449      8449      8451      8452      8454      8455      8452
      8456      8457      8461      8462      8463      8464      8466      8467
      8469      8470      8472      8473      8456      8461      8456      8458
      8456      8459      8456      8460      8461      8463      8461      8469
      8463      8466      8463      8465      8466      8468      8466      8472
      8472      8469      8469      8471      8472      8474      8475      8472
      8476      8477      8481      8482      8483      8484      8486      8487
      8489      8490      8492      8493      8476      8481      8476      8478
      8476      8479      8476      8480      8481      8483      8481      8489
      8483      8486      8483      8485      8486      8488      8486      8492
      8492      8489      8489      8491      8492      8494      8495      8492
      8496      8497      8501      8502      8503      8504      8506      8507
      8509      8510      8512      8513      8496      8501      8496      8498
      8496      8499      8496      8500      8501      8503      8501      8509
      8503      8506      8503      8505      8506      8508      8506      8512
      8512      8509      8509      8511      8512      8514      8515      8512
      8516      8517      8521      8522      8523      8524      8526      8527
      8529      8530      8532      8533      8516      8521      8516      8518
      8516      8519      8516      8520      8521      8523      8521      8529
      8523      8526      8523      8525      8526      8528      8526      8532
      8532      8529      8529      8531      8532      8534      8535      8532
      8536      8537      8541      8542      8543      8544      8546      8547
      8549      8550      8552      8553      8536      8541      8536      8538
      8536      8539      8536      8540      8541      8543      8541      8549
      8543      8546      8543      8545      8546      8548      8546      8552
      8552      8549      8549      8551      8552      8554      8555      8552
      8556      8557      8561      8562      8563      8564      8566      8567
      8569      8570      8572      8573      8556      8561      8556      8558
      8556      8559      8556      8560      8561      8563      8561      8569
      8563      8566      8563      8565      8566      8568      8566      8572
      8572      8569      8569      8571      8572      8574      8575      8572
      8576      8577      8581      8582      8583      8584      8586      8587
      8589      8590      8592      8593      8576      8581      8576      8578
      8576      8579      8576      8580      8581      8583      8581      8589
      8583      8586      8583      8585      8586      8588      8586      8592
      8592      8589      8589      8591      8592      8594      8595      8592
      8596      8597      8601      8602      8603      8604      8606      8607
      8609      8610      8612      8613      8596      8601      8596      8598
      8596      8599      8596      8600      8601      8603      8601      8609
      8603      8606      8603      8605      8606      8608      8606      8612
      8612      8609      8609      8611      8612      8614      8615      8612
      8616      8617      8621      8622      8623      8624      8626      8627
      8629      8630      8632      8633      8616      8621      8616      8618
      8616      8619      8616      8620      8621      8623      8621      8629
      8623      8626      8623      8625      8626      8628      8626      8632
      8632      8629      8629      8631      8632      8634      8635      8632
      8636      8637      8641      8642      8643      8644      8646      8647
      8649      8650      8652      8653      8636      8641      8636      8638
      8636      8639      8636      8640      8641      8643      8641      8649
      8643      8646      8643      8645      8646      8648      8646      8652
      8652      8649      8649      8651      8652      8654      8655      8652
      8656      8657      8661      8662      8663      8664      8666      8667
      8669      8670      8672      8673      8656      8661      8656      8658
      8656      8659      8656      8660      8661      8663      8661      8669
      8663      8666      8663      8665      8666      8668      8666      8672
      8672      8669      8669      8671      8672      8674      8675      8672
      8676      8677      8681      8682      8683      8684      8686      8687
      8689      8690      8692      8693      8676      8681      8676      8678
      8676      8679      8676      8680      8681      8683      8681      8689
      8683      8686      8683      8685      8686      8688      8686      8692
      8692      8689      8689      8691      8692      8694      8695      8692
      8696      8697      8701      8702      8703      8704      8706      8707
      8709      8710      8712      8713      8696      8701      8696      8698
      8696      8699      8696      8700      8701      8703      8701      8709
      8703      8706      8703      8705      8706      8708      8706      8712
      8712      8709      8709      8711      8712      8714      8715      8712
      8716      8717      8721      8722      8723      8724      8726      8727
      8729      8730      8732      8733      8716      8721      8716      8718
      8716      8719      8716      8720      8721      8723      8721      8729
      8723      8726      8723      8725      8726      8728      8726      8732
      8732      8729      8729      8731      8732      8734      8735      8732
      8736      8737      8741      8742      8743      8744      8746      8747
      8749      8750      8752      8753      8736      8741      8736      8738
      8736      8739      8736      8740      8741      8743      8741      8749
      8743      8746      8743      8745      8746      8748      8746      8752
      8752      8749      8749      8751      8752      8754      8755      8752
      8756      8757      8761      8762      8763      8764      8766      8767
      8769      8770      8772      8773      8756      8761      8756      8758
      8756      8759      8756      8760      8761      8763      8761      8769
      8763      8766      8763      8765      8766      8768      8766      8772
      8772      8769      8769      8771      8772      8774      8775      8772
      8776      8777      8781      8782      8783      8784      8786      8787
      8789      8790      8792      8793      8776      8781      8776      8778
      8776      8779      8776      8780      8781      8783      8781      8789
      8783      8786      8783      8785      8786      8788      8786      8792
      8792      8789      8789      8791      8792      8794      8795      8792
      8796      8797      8801      8802      8803      8804      8806      8807
      8809      8810      8812      8813      8796      8801      8796      8798
      8796      8799      8796      8800      8801      8803      8801      8809
      8803      8806      8803      8805      8806      8808      8806      8812
      8812      8809      8809      8811      8812      8814      8815      8812
      8816      8817      8821      8822      8823      8824      8826      8827
      8829      8830      8832      8833      8816      8821      8816      8818
      8816      8819      8816      8820      8821      8823      8821      8829
      8823      8826      8823      8825      8826      8828      8826      8832
      8832      8829      8829      8831      8832      8834      8835      8832
      8836      8837      8841      8842      8843      8844      8846      8847
      8849      8850      8852      8853      8836      8841      8836      8838
      8836      8839      8836      8840      8841      8843      8841      8849
      8843      8846      8843      8845      8846      8848      8846      8852
      8852      8849      8849      8851      8852      8854      8855      8852
      8856      8857      8861      8862      8863      8864      8866      8867
      8869      8870      8872      8873      8856      8861      8856      8858
      8856      8859      8856      8860      8861      8863      8861      8869
      8863      8866      8863      8865      8866      8868      8866      8872
      8872      8869      8869      8871      8872      8874      8875      8872
      8876      8877      8881      8882      8883      8884      8886      8887
      8889      8890      8892      8893      8876      8881      8876      8878
      8876      8879      8876      8880      8881      8883      8881      8889
      8883      8886      8883      8885      8886      8888      8886      8892
      8892      8889      8889      8891      8892      8894      8895      8892
      8896      8897      8901      8902      8903      8904      8906      8907
      8909      8910      8912      8913      8896      8901      8896      8898
      8896      8899      8896      8900      8901      8903      8901      8909
      8903      8906      8903      8905      8906      8908      8906      8912
      8912      8909      8909      8911      8912      8914      8915      8912
      8916      8917      8921      8922      8923      8924      8926      8927
      8929      8930      8932      8933      8916      8921      8916      8918
      8916      8919      8916      8920      8921      8923      8921      8929
      8923      8926      8923      8925      8926      8928      8926      8932
      8932      8929      8929      8931      8932      8934      8935      8932
      8936      8937      8941      8942      8943      8944      8946      8947
      8949      8950      8952      8953      8936      8941      8936      8938
      8936      8939      8936      8940      8941      8943      8941      8949
      8943      8946      8943      8945      8946      8948      8946      8952
      8952      8949      8949      8951      8952      8954      8955      8952
      8956      8957      8961      8962      8963      8964      8966      8967
      8969      8970      8972      8973      8956      8961      8956      8958
      8956      8959      8956      8960      8961      8963      8961      8969
      8963      8966      8963      8965      8966      8968      8966      8972
      8972      8969      8969      8971      8972      8974      8975      8972
      8976      8977      8981      8982      8983      8984      8986      8987
      8989      8990      8992      8993      8976      8981      8976      8978
      8976      8979      8976      8980      8981      8983      8981      8989
      8983      8986      8983      8985      8986      8988      8986      8992
      8992      8989      8989      8991      8992      8994      8995      8992
      8996      8997      9001      9002      9003      9004      9006      9007
      9009      9010      9012      9013      8996      9001      8996      8998
      8996      8999      8996      9000      9001      9003      9001      9009
      9003      9006      9003      9005      9006      9008      9006      9012
      9012      9009      9009      9011      9012      9014      9015      9012
      9016      9017      9021      9022      9023      9024      9026      9027
      9029      9030      9032      9033      9016      9021      9016      9018
      9016      9019      9016      9020      9021      9023      9021      9029
      9023      9026      9023      9025      9026      9028      9026      9032
      9032      9029      9029      9031      9032      9034      9035      9032
      9036      9037      9041      9042      9043      9044      9046      9047
      9049      9050      9052      9053      9036      9041      9036      9038
      9036      9039      9036      9040      9041      9043      9041      9049
      9043      9046      9043      9045      9046      9048      9046      9052
      9052      9049      9049      9051      9052      9054      9055      9052
      9056      9057      9061      9062      9063      9064      9066      9067
      9069      9070      9072      9073      9056      9061      9056      9058
      9056      9059      9056      9060      9061      9063      9061      9069
      9063      9066      9063      9065      9066      9068      9066      9072
      9072      9069      9069      9071      9072      9074      9075      9072
      9076      9077      9081      9082      9083      9084      9086      9087
      9089      9090      9092      9093      9076      9081      9076      9078
      9076      9079      9076      9080      9081      9083      9081      9089
      9083      9086      9083      9085      9086      9088      9086      9092
      9092      9089      9089      9091      9092      9094      9095      9092
      9096      9097      9101      9102      9103      9104      9106      9107
      9109      9110      9112      9113      9096      9101      9096      9098
      9096      9099      9096      9100      9101      9103      9101      9109
      9103      9106      9103      9105      9106      9108      9106      9112
      9112      9109      9109      9111      9112      9114      9115      9112
      9116      9117      9121      9122      9123      9124      9126      9127
      9129      9130      9132      9133      9116      9121      9116      9118
      9116      9119      9116      9120      9121      9123      9121      9129
      9123      9126      9123      9125      9126      9128      9126      9132
      9132      9129      9129      9131      9132      9134      9135      9132
      9136      9137      9141      9142      9143      9144      9146      9147
      9149      9150      9152      9153      9136      9141      9136      9138
      9136      9139      9136      9140      9141      9143      9141      9149
      9143      9146      9143      9145      9146      9148      9146      9152
      9152      9149      9149      9151      9152      9154      9155      9152
      9156      9157      9161      9162      9163      9164      9166      9167
      9169      9170      9172      9173      9156      9161      9156      9158
      9156      9159      9156      9160      9161      9163      9161      9169
      9163      9166      9163      9165      9166      9168      9166      9172
      9172      9169      9169      9171      9172      9174      9175      9172
      9176      9177      9181      9182      9183      9184      9186      9187
      9189      9190      9192      9193      9176      9181      9176      9178
      9176      9179      9176      9180      9181      9183      9181      9189
      9183      9186      9183      9185      9186      9188      9186      9192
      9192      9189      9189      9191      9192      9194      9195      9192
      9196      9197      9201      9202      9203      9204      9206      9207
      9209      9210      9212      9213      9196      9201      9196      9198
      9196      9199      9196      9200      9201      9203      9201      9209
      9203      9206      9203      9205      9206      9208      9206      9212
      9212      9209      9209      9211      9212      9214      9215      9212
      9216      9217      9221      9222      9223      9224      9226      9227
      9229      9230      9232      9233      9216      9221      9216      9218
      9216      9219      9216      9220      9221      9223      9221      9229
      9223      9226      9223      9225      9226      9228      9226      9232
      9232      9229      9229      9231      9232      9234      9235      9232
      9236      9237      9241      9242      9243      9244      9246      9247
      9249      9250      9252      9253      9236      9241      9236      9238
      9236      9239      9236      9240      9241      9243      9241      9249
      9243      9246      9243      9245      9246      9248      9246      9252
      9252      9249      9249      9251      9252      9254      9255      9252
      9256      9257      9261      9262      9263      9264      9266      9267
      9269      9270      9272      9273      9256      9261      9256      9258
      9256      9259      9256      9260      9261      9263      9261      9269
      9263      9266      9263      9265      9266      9268      9266      9272
      9272      9269      9269      9271      9272      9274      9275      9272
      9276      9277      9281      9282      9283      9284      9286      9287
      9289      9290      9292      9293      9276      9281      9276      9278
      9276      9279      9276      9280      9281      9283      9281      9289
      9283      9286      9283      9285      9286      9288      9286      9292
      9292      9289      9289      9291      9292      9294      9295      9292
      9296      9297      9301      9302      9303      9304      9306      9307
      9309      9310      9312      9313      9296      9301      9296      9298
      9296      9299      9296      9300      9301      9303      9301      9309
      9303      9306      9303      9305      9306      9308      9306      9312
      9312      9309      9309      9311      9312      9314      9315      9312
      9316      9317      9321      9322      9323      9324      9326      9327
      9329      9330      9332      9333      9316      9321      9316      9318
      9316      9319      9316      9320      9321      9323      9321      9329
      9323      9326      9323      9325      9326      9328      9326      9332
      9332      9329      9329      9331      9332      9334      9335      9332
      9336      9337      9341      9342      9343      9344      9346      9347
      9349      9350      9352      9353      9336      9341      9336      9338
      9336      9339      9336      9340      9341      9343      9341      9349
      9343      9346      9343      9345      9346      9348      9346      9352
      9352      9349      9349      9351      9352      9354      9355      9352
      9356      9357      9361      9362      9363      9364      9366      9367
      9369      9370      9372      9373      9356      9361      9356      9358
      9356      9359      9356      9360      9361      9363      9361      9369
      9363      9366      9363      9365      9366      9368      9366      9372
      9372      9369      9369      9371      9372      9374      9375      9372
      9376      9377      9381      9382      9383      9384      9386      9387
      9389      9390      9392      9393      9376      9381      9376      9378
      9376      9379      9376      9380      9381      9383      9381      9389
      9383      9386      9383      9385      9386      9388      9386      9392
      9392      9389      9389      9391      9392      9394      9395      9392
      9396      9397      9401      9402      9403      9404      9406      9407
      9409      9410      9412      9413      9396      9401      9396      9398
      9396      9399      9396      9400      9401      9403      9401      9409
      9403      9406      9403      9405      9406      9408      9406      9412
      9412      9409      9409      9411      9412      9414      9415      9412
      9416      9417      9421      9422      9423      9424      9426      9427
      9429      9430      9432      9433      9416      9421      9416      9418
      9416      9419      9416      9420      9421      9423      9421      9429
      9423      9426      9423      9425      9426      9428      9426      9432
      9432      9429      9429      9431      9432      9434      9435      9432
      9436      9437      9441      9442      9443      9444      9446      9447
      9449      9450      9452      9453      9436      9441      9436      9438
      9436      9439      9436      9440      9441      9443      9441      9449
      9443      9446      9443      9445      9446      9448      9446      9452
      9452      9449      9449      9451      9452      9454      9455      9452
      9456      9457      9461      9462      9463      9464      9466      9467
      9469      9470      9472      9473      9456      9461      9456      9458
      9456      9459      9456      9460      9461      9463      9461      9469
      9463      9466      9463      9465      9466      9468      9466      9472
      9472      9469      9469      9471      9472      9474      9475      9472
      9476      9477      9481      9482      9483      9484      9486      9487
      9489      9490      9492      9493      9476      9481      9476      9478
      9476      9479      9476      9480      9481      9483      9481      9489
      9483      9486      9483      9485      9486      9488      9486      9492
      9492      9489      9489      9491      9492      9494      9495      9492
      9496      9497      9501      9502      9503      9504      9506      9507
      9509      9510      9512      9513      9496      9501      9496      9498
      9496      9499      9496      9500      9501      9503      9501      9509
      9503      9506      9503      9505      9506      9508      9506      9512
      9512      9509      9509      9511      9512      9514      9515      9512
      9516      9517      9521      9522      9523      9524      9526      9527
      9529      9530      9532      9533      9516      9521      9516      9518
      9516      9519      9516      9520      9521      9523      9521      9529
      9523      9526      9523      9525      9526      9528      9526      9532
      9532      9529      9529      9531      9532      9534      9535      9532
      9536      9537      9541      9542      9543      9544      9546      9547
      9549      9550      9552      9553      9536      9541      9536      9538
      9536      9539      9536      9540      9541      9543      9541      9549
      9543      9546      9543      9545      9546      9548      9546      9552
      9552      9549      9549      9551      9552      9554      9555      9552
      9556      9557      9561      9562      9563      9564      9566      9567
      9569      9570      9572      9573      9556      9561      9556      9558
      9556      9559      9556      9560      9561      9563      9561      9569
      9563      9566      9563      9565      9566      9568      9566      9572
      9572      9569      9569      9571      9572      9574      9575      9572
      9576      9577      9581      9582      9583      9584      9586      9587
      9589      9590      9592      9593      9576      9581      9576      9578
      9576      9579      9576      9580      9581      9583      9581      9589
      9583      9586      9583      9585      9586      9588      9586      9592
      9592      9589      9589      9591      9592      9594      9595      9592
      9596      9597      9601      9602      9603      9604      9606      9607
      9609      9610      9612      9613      9596      9601      9596      9598
      9596      9599      9596      9600      9601      9603      9601      9609
      9603      9606      9603      9605      9606      9608      9606      9612
      9612      9609      9609      9611      9612      9614      9615      9612
      9616      9617      9621      9622      9623      9624      9626      9627
      9629      9630      9632      9633      9616      9621      9616      9618
      9616      9619      9616      9620      9621      9623      9621      9629
      9623      9626      9623      9625      9626      9628      9626      9632
      9632      9629      9629      9631      9632      9634      9635      9632
      9636      9637      9641      9642      9643      9644      9646      9647
      9649      9650      9652      9653      9636      9641      9636      9638
      9636      9639      9636      9640      9641      9643      9641      9649
      9643      9646      9643      9645      9646      9648      9646      9652
      9652      9649      9649      9651      9652      9654      9655      9652
      9656      9657      9661      9662      9663      9664      9666      9667
      9669      9670      9672      9673      9656      9661      9656      9658
      9656      9659      9656      9660      9661      9663      9661      9669
      9663      9666      9663      9665      9666      9668      9666      9672
      9672      9669      9669      9671      9672      9674      9675      9672
      9676      9677      9681      9682      9683      9684      9686      9687
      9689      9690      9692      9693      9676      9681      9676      9678
      9676      9679      9676      9680      9681      9683      9681      9689
      9683      9686      9683      9685      9686      9688      9686      9692
      9692      9689      9689      9691      9692      9694      9695      9692
      9696      9697      9701      9702      9703      9704      9706      9707
      9709      9710      9712      9713      9696      9701      9696      9698
      9696      9699      9696      9700      9701      9703      9701      9709
      9703      9706      9703      9705      9706      9708      9706      9712
      9712      9709      9709      9711      9712      9714      9715      9712
      9716      9717      9721      9722      9723      9724      9726      9727
      9729      9730      9732      9733      9716      9721      9716      9718
      9716      9719      9716      9720      9721      9723      9721      9729
      9723      9726      9723      9725      9726      9728      9726      9732
      9732      9729      9729      9731      9732      9734      9735      9732
      9736      9737      9741      9742      9743      9744      9746      9747
      9749      9750      9752      9753      9736      9741      9736      9738
      9736      9739      9736      9740      9741      9743      9741      9749
      9743      9746      9743      9745      9746      9748      9746      9752
      9752      9749      9749      9751      9752      9754      9755      9752
      9756      9757      9761      9762      9763      9764      9766      9767
      9769      9770      9772      9773      9756      9761      9756      9758
      9756      9759      9756      9760      9761      9763      9761      9769
      9763      9766      9763      9765      9766      9768      9766      9772
      9772      9769      9769      9771      9772      9774      9775      9772
      9776      9777      9781      9782      9783      9784      9786      9787
      9789      9790      9792      9793      9776      9781      9776      9778
      9776      9779      9776      9780      9781      9783      9781      9789
      9783      9786      9783      9785      9786      9788      9786      9792
      9792      9789      9789      9791      9792      9794      9795      9792
      9796      9797      9801      9802      9803      9804      9806      9807
      9809      9810      9812      9813      9796      9801      9796      9798
      9796      9799      9796      9800      9801      9803      9801      9809
      9803      9806      9803      9805      9806      9808      9806      9812
      9812      9809      9809      9811      9812      9814      9815      9812
      9816      9817      9821      9822      9823      9824      9826      9827
      9829      9830      9832      9833      9816      9821      9816      9818
      9816      9819      9816      9820      9821      9823      9821      9829
      9823      9826      9823      9825      9826      9828      9826      9832
      9832      9829      9829      9831      9832      9834      9835      9832
      9836      9837      9841      9842      9843      9844      9846      9847
      9849      9850      9852      9853      9836      9841      9836      9838
      9836      9839      9836      9840      9841      9843      9841      9849
      9843      9846      9843      9845      9846      9848      9846      9852
      9852      9849      9849      9851      9852      9854      9855      9852
      9856      9857      9861      9862      9863      9864      9866      9867
      9869      9870      9872      9873      9856      9861      9856      9858
      9856      9859      9856      9860      9861      9863      9861      9869
      9863      9866      9863      9865      9866      9868      9866      9872
      9872      9869      9869      9871      9872      9874      9875      9872
      9876      9877      9881      9882      9883      9884      9886      9887
      9889      9890      9892      9893      9876      9881      9876      9878
      9876      9879      9876      9880      9881      9883      9881      9889
      9883      9886      9883      9885      9886      9888      9886      9892
      9892      9889      9889      9891      9892      9894      9895      9892
      9896      9897      9901      9902      9903      9904      9906      9907
      9909      9910      9912      9913      9896      9901      9896      9898
      9896      9899      9896      9900      9901      9903      9901      9909
      9903      9906      9903      9905      9906      9908      9906      9912
      9912      9909      9909      9911      9912      9914      9915      9912
      9916      9917      9921      9922      9923      9924      9926      9927
      9929      9930      9932      9933      9916      9921      9916      9918
      9916      9919      9916      9920      9921      9923      9921      9929
      9923      9926      9923      9925      9926      9928      9926      9932
      9932      9929      9929      9931      9932      9934      9935      9932
      9936      9937      9941      9942      9943      9944      9946      9947
      9949      9950      9952      9953      9936      9941      9936      9938
      9936      9939      9936      9940      9941      9943      9941      9949
      9943      9946      9943      9945      9946      9948      9946      9952
      9952      9949      9949      9951      9952      9954      9955      9952
      9956      9957      9961      9962      9963      9964      9966      9967
      9969      9970      9972      9973      9956      9961      9956      9958
      9956      9959      9956      9960      9961      9963      9961      9969
      9963      9966      9963      9965      9966      9968      9966      9972
      9972      9969      9969      9971      9972      9974      9975      9972
      9976      9977      9981      9982      9983      9984      9986      9987
      9989      9990      9992      9993      9976      9981      9976      9978
      9976      9979      9976      9980      9981      9983      9981      9989
      9983      9986      9983      9985      9986      9988      9986      9992
      9992      9989      9989      9991      9992      9994      9995      9992
      9996      9997     10001     10002     10003     10004     10006     10007
     10009     10010     10012     10013      9996     10001      9996      9998
      9996      9999      9996     10000     10001     10003     10001     10009
     10003     10006     10003     10005     10006     10008     10006     10012
     10012     10009     10009     10011     10012     10014     10015     10012
     10016     10017     10021     10022     10023     10024     10026     10027
     10029     10030     10032     10033     10016     10021     10016     10018
     10016     10019     10016     10020     10021     10023     10021     10029
     10023     10026     10023     10025     10026     10028     10026     10032
     10032     10029     10029     10031     10032     10034     10035     10032
     10036     10037     10041     10042     10043     10044     10046     10047
     10049     10050     10052     10053     10036     10041     10036     10038
     10036     10039     10036     10040     10041     10043     10041     10049
     10043     10046     10043     10045     10046     10048     10046     10052
     10052     10049     10049     10051     10052     10054     10055     10052
     10056     10057     10061     10062     10063     10064     10066     10067
     10069     10070     10072     10073     10056     10061     10056     10058
     10056     10059     10056     10060     10061     10063     10061     10069
     10063     10066     10063     10065     10066     10068     10066     10072
     10072     10069     10069     10071     10072     10074     10075     10072
     10076     10077     10081     10082     10083     10084     10086     10087
     10089     10090     10092     10093     10076     10081     10076     10078
     10076     10079     10076     10080     10081     10083     10081     10089
     10083     10086     10083     10085     10086     10088     10086     10092
     10092     10089     10089     10091     10092     10094     10095     10092
     10096     10097     10101     10102     10103     10104     10106     10107
     10109     10110     10112     10113     10096     10101     10096     10098
     10096     10099     10096     10100     10101     10103     10101     10109
     10103     10106     10103     10105     10106     10108     10106     10112
     10112     10109     10109     10111     10112     10114     10115     10112
     10116     10117     10121     10122     10123     10124     10126     10127
     10129     10130     10132     10133     10116     10121     10116     10118
     10116     10119     10116     10120     10121     10123     10121     10129
     10123     10126     10123     10125     10126     10128     10126     10132
     10132     10129     10129     10131     10132     10134     10135     10132
     10136     10137     10141     10142     10143     10144     10146     10147
     10149     10150     10152     10153     10136     10141     10136     10138
     10136     10139     10136     10140     10141     10143     10141     10149
     10143     10146     10143     10145     10146     10148     10146     10152
     10152     10149     10149     10151     10152     10154     10155     10152
     10156     10157     10161     10162     10163     10164     10166     10167
     10169     10170     10172     10173     10156     10161     10156     10158
     10156     10159     10156     10160     10161     10163     10161     10169
     10163     10166     10163     10165     10166     10168     10166     10172
     10172     10169     10169     10171     10172     10174     10175     10172
     10176     10177     10181     10182     10183     10184     10186     10187
     10189     10190     10192     10193     10176     10181     10176     10178
     10176     10179     10176     10180     10181     10183     10181     10189
     10183     10186     10183     10185     10186     10188     10186     10192
     10192     10189     10189     10191     10192     10194     10195     10192
     10196     10197     10201     10202     10203     10204     10206     10207
     10209     10210     10212     10213     10196     10201     10196     10198
     10196     10199     10196     10200     10201     10203     10201     10209
     10203     10206     10203     10205     10206     10208     10206     10212
     10212     10209     10209     10211     10212     10214     10215     10212
     10216     10217     10221     10222     10223     10224     10226     10227
     10229     10230     10232     10233     10216     10221     10216     10218
     10216     10219     10216     10220     10221     10223     10221     10229
     10223     10226     10223     10225     10226     10228     10226     10232
     10232     10229     10229     10231     10232     10234     10235     10232
     10236     10237     10241     10242     10243     10244     10246     10247
     10249     10250     10252     10253     10236     10241     10236     10238
     10236     10239     10236     10240     10241     10243     10241     10249
     10243     10246     10243     10245     10246     10248     10246     10252
     10252     10249     10249     10251     10252     10254     10255     10252
     10256     10257     10261     10262     10263     10264     10266     10267
     10269     10270     10272     10273     10256     10261     10256     10258
     10256     10259     10256     10260     10261     10263     10261     10269
     10263     10266     10263     10265     10266     10268     10266     10272
     10272     10269     10269     10271     10272     10274     10275     10272
     10276     10277     10281     10282     10283     10284     10286     10287
     10289     10290     10292     10293     10276     10281     10276     10278
     10276     10279     10276     10280     10281     10283     10281     10289
     10283     10286     10283     10285     10286     10288     10286     10292
     10292     10289     10289     10291     10292     10294     10295     10292
     10296     10297     10301     10302     10303     10304     10306     10307
     10309     10310     10312     10313     10296     10301     10296     10298
     10296     10299     10296     10300     10301     10303     10301     10309
     10303     10306     10303     10305     10306     10308     10306     10312
     10312     10309     10309     10311     10312     10314     10315     10312
     10316     10317     10321     10322     10323     10324     10326     10327
     10329     10330     10332     10333     10316     10321     10316     10318
     10316     10319     10316     10320     10321     10323     10321     10329
     10323     10326     10323     10325     10326     10328     10326     10332
     10332     10329     10329     10331     10332     10334     10335     10332
     10336     10337     10341     10342     10343     10344     10346     10347
     10349     10350     10352     10353     10336     10341     10336     10338
     10336     10339     10336     10340     10341     10343     10341     10349
     10343     10346     10343     10345     10346     10348     10346     10352
     10352     10349     10349     10351     10352     10354     10355     10352
     10356     10357     10361     10362     10363     10364     10366     10367
     10369     10370     10372     10373     10356     10361     10356     10358
     10356     10359     10356     10360     10361     10363     10361     10369
     10363     10366     10363     10365     10366     10368     10366     10372
     10372     10369     10369     10371     10372     10374     10375     10372
     10376     10377     10381     10382     10383     10384     10386     10387
     10389     10390     10392     10393     10376     10381     10376     10378
     10376     10379     10376     10380     10381     10383     10381     10389
     10383     10386     10383     10385     10386     10388     10386     10392
     10392     10389     10389     10391     10392     10394     10395     10392
     10396     10397     10401     10402     10403     10404     10406     10407
     10409     10410     10412     10413     10396     10401     10396     10398
     10396     10399     10396     10400     10401     10403     10401     10409
     10403     10406     10403     10405     10406     10408     10406     10412
     10412     10409     10409     10411     10412     10414     10415     10412
     10416     10417     10421     10422     10423     10424     10426     10427
     10429     10430     10432     10433     10416     10421     10416     10418
     10416     10419     10416     10420     10421     10423     10421     10429
     10423     10426     10423     10425     10426     10428     10426     10432
     10432     10429     10429     10431     10432     10434     10435     10432
     10436     10437     10441     10442     10443     10444     10446     10447
     10449     10450     10452     10453     10436     10441     10436     10438
     10436     10439     10436     10440     10441     10443     10441     10449
     10443     10446     10443     10445     10446     10448     10446     10452
     10452     10449     10449     10451     10452     10454     10455     10452
     10456     10457     10461     10462     10463     10464     10466     10467
     10469     10470     10472     10473     10456     10461     10456     10458
     10456     10459     10456     10460     10461     10463     10461     10469
     10463     10466     10463     10465     10466     10468     10466     10472
     10472     10469     10469     10471     10472     10474     10475     10472
     10476     10477     10481     10482     10483     10484     10486     10487
     10489     10490     10492     10493     10476     10481     10476     10478
     10476     10479     10476     10480     10481     10483     10481     10489
     10483     10486     10483     10485     10486     10488     10486     10492
     10492     10489     10489     10491     10492     10494     10495     10492
     10496     10497     10501     10502     10503     10504     10506     10507
     10509     10510     10512     10513     10496     10501     10496     10498
     10496     10499     10496     10500     10501     10503     10501     10509
     10503     10506     10503     10505     10506     10508     10506     10512
     10512     10509     10509     10511     10512     10514     10515     10512
     10516     10517     10521     10522     10523     10524     10526     10527
     10529     10530     10532     10533     10516     10521     10516     10518
     10516     10519     10516     10520     10521     10523     10521     10529
     10523     10526     10523     10525     10526     10528     10526     10532
     10532     10529     10529     10531     10532     10534     10535     10532
     10536     10537     10541     10542     10543     10544     10546     10547
     10549     10550     10552     10553     10536     10541     10536     10538
     10536     10539     10536     10540     10541     10543     10541     10549
     10543     10546     10543     10545     10546     10548     10546     10552
     10552     10549     10549     10551     10552     10554     10555     10552
     10556     10557     10561     10562     10563     10564     10566     10567
     10569     10570     10572     10573     10556     10561     10556     10558
     10556     10559     10556     10560     10561     10563     10561     10569
     10563     10566     10563     10565     10566     10568     10566     10572
     10572     10569     10569     10571     10572     10574     10575     10572
     10576     10577     10581     10582     10583     10584     10586     10587
     10589     10590     10592     10593     10576     10581     10576     10578
     10576     10579     10576     10580     10581     10583     10581     10589
     10583     10586     10583     10585     10586     10588     10586     10592
     10592     10589     10589     10591     10592     10594     10595     10592
     10596     10597     10601     10602     10603     10604     10606     10607
     10609     10610     10612     10613     10596     10601     10596     10598
     10596     10599     10596     10600     10601     10603     10601     10609
     10603     10606     10603     10605     10606     10608     10606     10612
     10612     10609     10609     10611     10612     10614     10615     10612
     10616     10617     10621     10622     10623     10624     10626     10627
     10629     10630     10632     10633     10616     10621     10616     10618
     10616     10619     10616     10620     10621     10623     10621     10629
     10623     10626     10623     10625     10626     10628     10626     10632
     10632     10629     10629     10631     10632     10634     10635     10632
     10636     10637     10641     10642     10643     10644     10646     10647
     10649     10650     10652     10653     10636     10641     10636     10638
     10636     10639     10636     10640     10641     10643     10641     10649
     10643     10646     10643     10645     10646     10648     10646     10652
     10652     10649     10649     10651     10652     10654     10655     10652
     10656     10657     10661     10662     10663     10664     10666     10667
     10669     10670     10672     10673     10656     10661     10656     10658
     10656     10659     10656     10660     10661     10663     10661     10669
     10663     10666     10663     10665     10666     10668     10666     10672
     10672     10669     10669     10671     10672     10674     10675     10672
     10676     10677     10681     10682     10683     10684     10686     10687
     10689     10690     10692     10693     10676     10681     10676     10678
     10676     10679     10676     10680     10681     10683     10681     10689
     10683     10686     10683     10685     10686     10688     10686     10692
     10692     10689     10689     10691     10692     10694     10695     10692
     10696     10697     10701     10702     10703     10704     10706     10707
     10709     10710     10712     10713     10696     10701     10696     10698
     10696     10699     10696     10700     10701     10703     10701     10709
     10703     10706     10703     10705     10706     10708     10706     10712
     10712     10709     10709     10711     10712     10714     10715     10712
     10716     10717     10721     10722     10723     10724     10726     10727
     10729     10730     10732     10733     10716     10721     10716     10718
     10716     10719     10716     10720     10721     10723     10721     10729
     10723     10726     10723     10725     10726     10728     10726     10732
     10732     10729     10729     10731     10732     10734     10735     10732
     10736     10737     10741     10742     10743     10744     10746     10747
     10749     10750     10752     10753     10736     10741     10736     10738
     10736     10739     10736     10740     10741     10743     10741     10749
     10743     10746     10743     10745     10746     10748     10746     10752
     10752     10749     10749     10751     10752     10754     10755     10752
     10756     10757     10761     10762     10763     10764     10766     10767
     10769     10770     10772     10773     10756     10761     10756     10758
     10756     10759     10756     10760     10761     10763     10761     10769
     10763     10766     10763     10765     10766     10768     10766     10772
     10772     10769     10769     10771     10772     10774     10775     10772
     10776     10777     10781     10782     10783     10784     10786     10787
     10789     10790     10792     10793     10776     10781     10776     10778
     10776     10779     10776     10780     10781     10783     10781     10789
     10783     10786     10783     10785     10786     10788     10786     10792
     10792     10789     10789     10791     10792     10794     10795     10792
     10796     10797     10801     10802     10803     10804     10806     10807
     10809     10810     10812     10813     10796     10801     10796     10798
     10796     10799     10796     10800     10801     10803     10801     10809
     10803     10806     10803     10805     10806     10808     10806     10812
     10812     10809     10809     10811     10812     10814     10815     10812
     10816     10817     10821     10822     10823     10824     10826     10827
     10829     10830     10832     10833     10816     10821     10816     10818
     10816     10819     10816     10820     10821     10823     10821     10829
     10823     10826     10823     10825     10826     10828     10826     10832
     10832     10829     10829     10831     10832     10834     10835     10832
     10836     10837     10841     10842     10843     10844     10846     10847
     10849     10850     10852     10853     10836     10841     10836     10838
     10836     10839     10836     10840     10841     10843     10841     10849
     10843     10846     10843     10845     10846     10848     10846     10852
     10852     10849     10849     10851     10852     10854     10855     10852
     10856     10857     10861     10862     10863     10864     10866     10867
     10869     10870     10872     10873     10856     10861     10856     10858
     10856     10859     10856     10860     10861     10863     10861     10869
     10863     10866     10863     10865     10866     10868     10866     10872
     10872     10869     10869     10871     10872     10874     10875     10872
     10876     10877     10881     10882     10883     10884     10886     10887
     10889     10890     10892     10893     10876     10881     10876     10878
     10876     10879     10876     10880     10881     10883     10881     10889
     10883     10886     10883     10885     10886     10888     10886     10892
     10892     10889     10889     10891     10892     10894     10895     10892
     10896     10897     10901     10902     10903     10904     10906     10907
     10909     10910     10912     10913     10896     10901     10896     10898
     10896     10899     10896     10900     10901     10903     10901     10909
     10903     10906     10903     10905     10906     10908     10906     10912
     10912     10909     10909     10911     10912     10914     10915     10912
     10916     10917     10921     10922     10923     10924     10926     10927
     10929     10930     10932     10933     10916     10921     10916     10918
     10916     10919     10916     10920     10921     10923     10921     10929
     10923     10926     10923     10925     10926     10928     10926     10932
     10932     10929     10929     10931     10932     10934     10935     10932
     10936     10937     10941     10942     10943     10944     10946     10947
     10949     10950     10952     10953     10936     10941     10936     10938
     10936     10939     10936     10940     10941     10943     10941     10949
     10943     10946     10943     10945     10946     10948     10946     10952
     10952     10949     10949     10951     10952     10954     10955     10952
     10956     10957     10961     10962     10963     10964     10966     10967
     10969     10970     10972     10973     10956     10961     10956     10958
     10956     10959     10956     10960     10961     10963     10961     10969
     10963     10966     10963     10965     10966     10968     10966     10972
     10972     10969     10969     10971     10972     10974     10975     10972
     10976     10977     10981     10982     10983     10984     10986     10987
     10989     10990     10992     10993     10976     10981     10976     10978
     10976     10979     10976     10980     10981     10983     10981     10989
     10983     10986     10983     10985     10986     10988     10986     10992
     10992     10989     10989     10991     10992     10994     10995     10992
     10996     10997     11001     11002     11003     11004     11006     11007
     11009     11010     11012     11013     10996     11001     10996     10998
     10996     10999     10996     11000     11001     11003     11001     11009
     11003     11006     11003     11005     11006     11008     11006     11012
     11012     11009     11009     11011     11012     11014     11015     11012
     11016     11017     11021     11022     11023     11024     11026     11027
     11029     11030     11032     11033     11016     11021     11016     11018
     11016     11019     11016     11020     11021     11023     11021     11029
     11023     11026     11023     11025     11026     11028     11026     11032
     11032     11029     11029     11031     11032     11034     11035     11032
     11036     11037     11041     11042     11043     11044     11046     11047
     11049     11050     11052     11053     11036     11041     11036     11038
     11036     11039     11036     11040     11041     11043     11041     11049
     11043     11046     11043     11045     11046     11048     11046     11052
     11052     11049     11049     11051     11052     11054     11055     11052
     11056     11057     11061     11062     11063     11064     11066     11067
     11069     11070     11072     11073     11056     11061     11056     11058
     11056     11059     11056     11060     11061     11063     11061     11069
     11063     11066     11063     11065     11066     11068     11066     11072
     11072     11069     11069     11071     11072     11074     11075     11072
     11076     11077     11081     11082     11083     11084     11086     11087
     11089     11090     11092     11093     11076     11081     11076     11078
     11076     11079     11076     11080     11081     11083     11081     11089
     11083     11086     11083     11085     11086     11088     11086     11092
     11092     11089     11089     11091     11092     11094     11095     11092
     11096     11097     11101     11102     11103     11104     11106     11107
     11109     11110     11112     11113     11096     11101     11096     11098
     11096     11099     11096     11100     11101     11103     11101     11109
     11103     11106     11103     11105     11106     11108     11106     11112
     11112     11109     11109     11111     11112     11114     11115     11112
     11116     11117     11121     11122     11123     11124     11126     11127
     11129     11130     11132     11133     11116     11121     11116     11118
     11116     11119     11116     11120     11121     11123     11121     11129
     11123     11126     11123     11125     11126     11128     11126     11132
     11132     11129     11129     11131     11132     11134     11135     11132
     11136     11137     11141     11142     11143     11144     11146     11147
     11149     11150     11152     11153     11136     11141     11136     11138
     11136     11139     11136     11140     11141     11143     11141     11149
     11143     11146     11143     11145     11146     11148     11146     11152
     11152     11149     11149     11151     11152     11154     11155     11152
     11156     11157     11161     11162     11163     11164     11166     11167
     11169     11170     11172     11173     11156     11161     11156     11158
     11156     11159     11156     11160     11161     11163     11161     11169
     11163     11166     11163     11165     11166     11168     11166     11172
     11172     11169     11169     11171     11172     11174     11175     11172
     11176     11177     11181     11182     11183     11184     11186     11187
     11189     11190     11192     11193     11176     11181     11176     11178
     11176     11179     11176     11180     11181     11183     11181     11189
     11183     11186     11183     11185     11186     11188     11186     11192
     11192     11189     11189     11191     11192     11194     11195     11192
     11196     11197     11201     11202     11203     11204     11206     11207
     11209     11210     11212     11213     11196     11201     11196     11198
     11196     11199     11196     11200     11201     11203     11201     11209
     11203     11206     11203     11205     11206     11208     11206     11212
     11212     11209     11209     11211     11212     11214     11215     11212
     11216     11217     11221     11222     11223     11224     11226     11227
     11229     11230     11232     11233     11216     11221     11216     11218
     11216     11219     11216     11220     11221     11223     11221     11229
     11223     11226     11223     11225     11226     11228     11226     11232
     11232     11229     11229     11231     11232     11234     11235     11232
     11236     11237     11241     11242     11243     11244     11246     11247
     11249     11250     11252     11253     11236     11241     11236     11238
     11236     11239     11236     11240     11241     11243     11241     11249
     11243     11246     11243     11245     11246     11248     11246     11252
     11252     11249     11249     11251     11252     11254     11255     11252
     11256     11257     11261     11262     11263     11264     11266     11267
     11269     11270     11272     11273     11256     11261     11256     11258
     11256     11259     11256     11260     11261     11263     11261     11269
     11263     11266     11263     11265     11266     11268     11266     11272
     11272     11269     11269     11271     11272     11274     11275     11272
     11276     11277     11281     11282     11283     11284     11286     11287
     11289     11290     11292     11293     11276     11281     11276     11278
     11276     11279     11276     11280     11281     11283     11281     11289
     11283     11286     11283     11285     11286     11288     11286     11292
     11292     11289     11289     11291     11292     11294     11295     11292
     11296     11297     11301     11302     11303     11304     11306     11307
     11309     11310     11312     11313     11296     11301     11296     11298
     11296     11299     11296     11300     11301     11303     11301     11309
     11303     11306     11303     11305     11306     11308     11306     11312
     11312     11309     11309     11311     11312     11314     11315     11312
     11316     11317     11321     11322     11323     11324     11326     11327
     11329     11330     11332     11333     11316     11321     11316     11318
     11316     11319     11316     11320     11321     11323     11321     11329
     11323     11326     11323     11325     11326     11328     11326     11332
     11332     11329     11329     11331     11332     11334     11335     11332
     11336     11337     11341     11342     11343     11344     11346     11347
     11349     11350     11352     11353     11336     11341     11336     11338
     11336     11339     11336     11340     11341     11343     11341     11349
     11343     11346     11343     11345     11346     11348     11346     11352
     11352     11349     11349     11351     11352     11354     11355     11352
     11356     11357     11361     11362     11363     11364     11366     11367
     11369     11370     11372     11373     11356     11361     11356     11358
     11356     11359     11356     11360     11361     11363     11361     11369
     11363     11366     11363     11365     11366     11368     11366     11372
     11372     11369     11369     11371     11372     11374     11375     11372
     11376     11377     11381     11382     11383     11384     11386     11387
     11389     11390     11392     11393     11376     11381     11376     11378
     11376     11379     11376     11380     11381     11383     11381     11389
     11383     11386     11383     11385     11386     11388     11386     11392
     11392     11389     11389     11391     11392     11394     11395     11392
     11396     11397     11401     11402     11403     11404     11406     11407
     11409     11410     11412     11413     11396     11401     11396     11398
     11396     11399     11396     11400     11401     11403     11401     11409
     11403     11406     11403     11405     11406     11408     11406     11412
     11412     11409     11409     11411     11412     11414     11415     11412
     11416     11417     11421     11422     11423     11424     11426     11427
     11429     11430     11432     11433     11416     11421     11416     11418
     11416     11419     11416     11420     11421     11423     11421     11429
     11423     11426     11423     11425     11426     11428     11426     11432
     11432     11429     11429     11431     11432     11434     11435     11432
     11436     11437     11441     11442     11443     11444     11446     11447
     11449     11450     11452     11453     11436     11441     11436     11438
     11436     11439     11436     11440     11441     11443     11441     11449
     11443     11446     11443     11445     11446     11448     11446     11452
     11452     11449     11449     11451     11452     11454     11455     11452
     11456     11457     11461     11462     11463     11464     11466     11467
     11469     11470     11472     11473     11456     11461     11456     11458
     11456     11459     11456     11460     11461     11463     11461     11469
     11463     11466     11463     11465     11466     11468     11466     11472
     11472     11469     11469     11471     11472     11474     11475     11472
     11476     11477     11481     11482     11483     11484     11486     11487
     11489     11490     11492     11493     11476     11481     11476     11478
     11476     11479     11476     11480     11481     11483     11481     11489
     11483     11486     11483     11485     11486     11488     11486     11492
     11492     11489     11489     11491     11492     11494     11495     11492
     11496     11497     11501     11502     11503     11504     11506     11507
     11509     11510     11512     11513     11496     11501     11496     11498
     11496     11499     11496     11500     11501     11503     11501     11509
     11503     11506     11503     11505     11506     11508     11506     11512
     11512     11509     11509     11511     11512     11514     11515     11512
     11516     11517     11521     11522     11523     11524     11526     11527
     11529     11530     11532     11533     11516     11521     11516     11518
     11516     11519     11516     11520     11521     11523     11521     11529
     11523     11526     11523     11525     11526     11528     11526     11532
     11532     11529     11529     11531     11532     11534     11535     11532
     11536     11537     11541     11542     11543     11544     11546     11547
     11549     11550     11552     11553     11536     11541     11536     11538
     11536     11539     11536     11540     11541     11543     11541     11549
     11543     11546     11543     11545     11546     11548     11546     11552
     11552     11549     11549     11551     11552     11554     11555     11552
     11556     11557     11561     11562     11563     11564     11566     11567
     11569     11570     11572     11573     11556     11561     11556     11558
     11556     11559     11556     11560     11561     11563     11561     11569
     11563     11566     11563     11565     11566     11568     11566     11572
     11572     11569     11569     11571     11572     11574     11575     11572
     11576     11577     11581     11582     11583     11584     11586     11587
     11589     11590     11592     11593     11576     11581     11576     11578
     11576     11579     11576     11580     11581     11583     11581     11589
     11583     11586     11583     11585     11586     11588     11586     11592
     11592     11589     11589     11591     11592     11594     11595     11592
     11596     11597     11601     11602     11603     11604     11606     11607
     11609     11610     11612     11613     11596     11601     11596     11598
     11596     11599     11596     11600     11601     11603     11601     11609
     11603     11606     11603     11605     11606     11608     11606     11612
     11612     11609     11609     11611     11612     11614     11615     11612
     11616     11617     11621     11622     11623     11624     11626     11627
     11629     11630     11632     11633     11616     11621     11616     11618
     11616     11619     11616     11620     11621     11623     11621     11629
     11623     11626     11623     11625     11626     11628     11626     11632
     11632     11629     11629     11631     11632     11634     11635     11632
     11636     11637     11641     11642     11643     11644     11646     11647
     11649     11650     11652     11653     11636     11641     11636     11638
     11636     11639     11636     11640     11641     11643     11641     11649
     11643     11646     11643     11645     11646     11648     11646     11652
     11652     11649     11649     11651     11652     11654     11655     11652
     11656     11657     11661     11662     11663     11664     11666     11667
     11669     11670     11672     11673     11656     11661     11656     11658
     11656     11659     11656     11660     11661     11663     11661     11669
     11663     11666     11663     11665     11666     11668     11666     11672
     11672     11669     11669     11671     11672     11674     11675     11672
     11676     11677     11681     11682     11683     11684     11686     11687
     11689     11690     11692     11693     11676     11681     11676     11678
     11676     11679     11676     11680     11681     11683     11681     11689
     11683     11686     11683     11685     11686     11688     11686     11692
     11692     11689     11689     11691     11692     11694     11695     11692
     11696     11697     11701     11702     11703     11704     11706     11707
     11709     11710     11712     11713     11696     11701     11696     11698
     11696     11699     11696     11700     11701     11703     11701     11709
     11703     11706     11703     11705     11706     11708     11706     11712
     11712     11709     11709     11711     11712     11714     11715     11712
     11716     11717     11721     11722     11723     11724     11726     11727
     11729     11730     11732     11733     11716     11721     11716     11718
     11716     11719     11716     11720     11721     11723     11721     11729
     11723     11726     11723     11725     11726     11728     11726     11732
     11732     11729     11729     11731     11732     11734     11735     11732
     11736     11737     11741     11742     11743     11744     11746     11747
     11749     11750     11752     11753     11736     11741     11736     11738
     11736     11739     11736     11740     11741     11743     11741     11749
     11743     11746     11743     11745     11746     11748     11746     11752
     11752     11749     11749     11751     11752     11754     11755     11752
     11756     11757     11761     11762     11763     11764     11766     11767
     11769     11770     11772     11773     11756     11761     11756     11758
     11756     11759     11756     11760     11761     11763     11761     11769
     11763     11766     11763     11765     11766     11768     11766     11772
     11772     11769     11769     11771     11772     11774     11775     11772
     11776     11777     11781     11782     11783     11784     11786     11787
     11789     11790     11792     11793     11776     11781     11776     11778
     11776     11779     11776     11780     11781     11783     11781     11789
     11783     11786     11783     11785     11786     11788     11786     11792
     11792     11789     11789     11791     11792     11794     11795     11792
     11796     11797     11801     11802     11803     11804     11806     11807
     11809     11810     11812     11813     11796     11801     11796     11798
     11796     11799     11796     11800     11801     11803     11801     11809
     11803     11806     11803     11805     11806     11808     11806     11812
     11812     11809     11809     11811     11812     11814     11815     11812
     11816     11817     11821     11822     11823     11824     11826     11827
     11829     11830     11832     11833     11816     11821     11816     11818
     11816     11819     11816     11820     11821     11823     11821     11829
     11823     11826     11823     11825     11826     11828     11826     11832
     11832     11829     11829     11831     11832     11834     11835     11832
     11836     11837     11841     11842     11843     11844     11846     11847
     11849     11850     11852     11853     11836     11841     11836     11838
     11836     11839     11836     11840     11841     11843     11841     11849
     11843     11846     11843     11845     11846     11848     11846     11852
     11852     11849     11849     11851     11852     11854     11855     11852
     11856     11857     11861     11862     11863     11864     11866     11867
     11869     11870     11872     11873     11856     11861     11856     11858
     11856     11859     11856     11860     11861     11863     11861     11869
     11863     11866     11863     11865     11866     11868     11866     11872
     11872     11869     11869     11871     11872     11874     11875     11872
     11876     11877     11881     11882     11883     11884     11886     11887
     11889     11890     11892     11893     11876     11881     11876     11878
     11876     11879     11876     11880     11881     11883     11881     11889
     11883     11886     11883     11885     11886     11888     11886     11892
     11892     11889     11889     11891     11892     11894     11895     11892
     11896     11897     11901     11902     11903     11904     11906     11907
     11909     11910     11912     11913     11896     11901     11896     11898
     11896     11899     11896     11900     11901     11903     11901     11909
     11903     11906     11903     11905     11906     11908     11906     11912
     11912     11909     11909     11911     11912     11914     11915     11912
     11916     11917     11921     11922     11923     11924     11926     11927
     11929     11930     11932     11933     11916     11921     11916     11918
     11916     11919     11916     11920     11921     11923     11921     11929
     11923     11926     11923     11925     11926     11928     11926     11932
     11932     11929     11929     11931     11932     11934     11935     11932
     11936     11937     11941     11942     11943     11944     11946     11947
     11949     11950     11952     11953     11936     11941     11936     11938
     11936     11939     11936     11940     11941     11943     11941     11949
     11943     11946     11943     11945     11946     11948     11946     11952
     11952     11949     11949     11951     11952     11954     11955     11952
     11956     11957     11961     11962     11963     11964     11966     11967
     11969     11970     11972     11973     11956     11961     11956     11958
     11956     11959     11956     11960     11961     11963     11961     11969
     11963     11966     11963     11965     11966     11968     11966     11972
     11972     11969     11969     11971     11972     11974     11975     11972
     11976     11977     11981     11982     11983     11984     11986     11987
     11989     11990     11992     11993     11976     11981     11976     11978
     11976     11979     11976     11980     11981     11983     11981     11989
     11983     11986     11983     11985     11986     11988     11986     11992
     11992     11989     11989     11991     11992     11994     11995     11992
     11996     11997     12001     12002     12003     12004     12006     12007
     12009     12010     12012     12013     11996     12001     11996     11998
     11996     11999     11996     12000     12001     12003     12001     12009
     12003     12006     12003     12005     12006     12008     12006     12012
     12012     12009     12009     12011     12012     12014     12015     12012
     12016     12017     12021     12022     12023     12024     12026     12027
     12029     12030     12032     12033     12016     12021     12016     12018
     12016     12019     12016     12020     12021     12023     12021     12029
     12023     12026     12023     12025     12026     12028     12026     12032
     12032     12029     12029     12031     12032     12034     12035     12032
     12036     12037     12041     12042     12043     12044     12046     12047
     12049     12050     12052     12053     12036     12041     12036     12038
     12036     12039     12036     12040     12041     12043     12041     12049
     12043     12046     12043     12045     12046     12048     12046     12052
     12052     12049     12049     12051     12052     12054     12055     12052
     12056     12057     12061     12062     12063     12064     12066     12067
     12069     12070     12072     12073     12056     12061     12056     12058
     12056     12059     12056     12060     12061     12063     12061     12069
     12063     12066     12063     12065     12066     12068     12066     12072
     12072     12069     12069     12071     12072     12074     12075     12072
     12076     12077     12081     12082     12083     12084     12086     12087
     12089     12090     12092     12093     12076     12081     12076     12078
     12076     12079     12076     12080     12081     12083     12081     12089
     12083     12086     12083     12085     12086     12088     12086     12092
     12092     12089     12089     12091     12092     12094     12095     12092
     12096     12097     12101     12102     12103     12104     12106     12107
     12109     12110     12112     12113     12096     12101     12096     12098
     12096     12099     12096     12100     12101     12103     12101     12109
     12103     12106     12103     12105     12106     12108     12106     12112
     12112     12109     12109     12111     12112     12114     12115     12112
     12116     12117     12121     12122     12123     12124     12126     12127
     12129     12130     12132     12133     12116     12121     12116     12118
     12116     12119     12116     12120     12121     12123     12121     12129
     12123     12126     12123     12125     12126     12128     12126     12132
     12132     12129     12129     12131     12132     12134     12135     12132
     12136     12137     12141     12142     12143     12144     12146     12147
     12149     12150     12152     12153     12136     12141     12136     12138
     12136     12139     12136     12140     12141     12143     12141     12149
     12143     12146     12143     12145     12146     12148     12146     12152
     12152     12149     12149     12151     12152     12154     12155     12152
     12156     12157     12161     12162     12163     12164     12166     12167
     12169     12170     12172     12173     12156     12161     12156     12158
     12156     12159     12156     12160     12161     12163     12161     12169
     12163     12166     12163     12165     12166     12168     12166     12172
     12172     12169     12169     12171     12172     12174     12175     12172
     12176     12177     12181     12182     12183     12184     12186     12187
     12189     12190     12192     12193     12176     12181     12176     12178
     12176     12179     12176     12180     12181     12183     12181     12189
     12183     12186     12183     12185     12186     12188     12186     12192
     12192     12189     12189     12191     12192     12194     12195     12192
     12196     12197     12201     12202     12203     12204     12206     12207
     12209     12210     12212     12213     12196     12201     12196     12198
     12196     12199     12196     12200     12201     12203     12201     12209
     12203     12206     12203     12205     12206     12208     12206     12212
     12212     12209     12209     12211     12212     12214     12215     12212
     12216     12217     12221     12222     12223     12224     12226     12227
     12229     12230     12232     12233     12216     12221     12216     12218
     12216     12219     12216     12220     12221     12223     12221     12229
     12223     12226     12223     12225     12226     12228     12226     12232
     12232     12229     12229     12231     12232     12234     12235     12232
     12236     12237     12241     12242     12243     12244     12246     12247
     12249     12250     12252     12253     12236     12241     12236     12238
     12236     12239     12236     12240     12241     12243     12241     12249
     12243     12246     12243     12245     12246     12248     12246     12252
     12252     12249     12249     12251     12252     12254     12255     12252
     12256     12257     12261     12262     12263     12264     12266     12267
     12269     12270     12272     12273     12256     12261     12256     12258
     12256     12259     12256     12260     12261     12263     12261     12269
     12263     12266     12263     12265     12266     12268     12266     12272
     12272     12269     12269     12271     12272     12274     12275     12272
     12276     12277     12281     12282     12283     12284     12286     12287
     12289     12290     12292     12293     12276     12281     12276     12278
     12276     12279     12276     12280     12281     12283     12281     12289
     12283     12286     12283     12285     12286     12288     12286     12292
     12292     12289     12289     12291     12292     12294     12295     12292
     12296     12297     12301     12302     12303     12304     12306     12307
     12309     12310     12312     12313     12296     12301     12296     12298
     12296     12299     12296     12300     12301     12303     12301     12309
     12303     12306     12303     12305     12306     12308     12306     12312
     12312     12309     12309     12311     12312     12314     12315     12312
     12316     12317     12321     12322     12323     12324     12326     12327
     12329     12330     12332     12333     12316     12321     12316     12318
     12316     12319     12316     12320     12321     12323     12321     12329
     12323     12326     12323     12325     12326     12328     12326     12332
     12332     12329     12329     12331     12332     12334     12335     12332
     12336     12337     12341     12342     12343     12344     12346     12347
     12349     12350     12352     12353     12336     12341     12336     12338
     12336     12339     12336     12340     12341     12343     12341     12349
     12343     12346     12343     12345     12346     12348     12346     12352
     12352     12349     12349     12351     12352     12354     12355     12352
     12356     12357     12361     12362     12363     12364     12366     12367
     12369     12370     12372     12373     12356     12361     12356     12358
     12356     12359     12356     12360     12361     12363     12361     12369
     12363     12366     12363     12365     12366     12368     12366     12372
     12372     12369     12369     12371     12372     12374     12375     12372
     12376     12377     12381     12382     12383     12384     12386     12387
     12389     12390     12392     12393     12376     12381     12376     12378
     12376     12379     12376     12380     12381     12383     12381     12389
     12383     12386     12383     12385     12386     12388     12386     12392
     12392     12389     12389     12391     12392     12394     12395     12392
     12396     12397     12401     12402     12403     12404     12406     12407
     12409     12410     12412     12413     12396     12401     12396     12398
     12396     12399     12396     12400     12401     12403     12401     12409
     12403     12406     12403     12405     12406     12408     12406     12412
     12412     12409     12409     12411     12412     12414     12415     12412
     12416     12417     12421     12422     12423     12424     12426     12427
     12429     12430     12432     12433     12416     12421     12416     12418
     12416     12419     12416     12420     12421     12423     12421     12429
     12423     12426     12423     12425     12426     12428     12426     12432
     12432     12429     12429     12431     12432     12434     12435     12432
     12436     12437     12441     12442     12443     12444     12446     12447
     12449     12450     12452     12453     12436     12441     12436     12438
     12436     12439     12436     12440     12441     12443     12441     12449
     12443     12446     12443     12445     12446     12448     12446     12452
     12452     12449     12449     12451     12452     12454     12455     12452
     12456     12457     12461     12462     12463     12464     12466     12467
     12469     12470     12472     12473     12456     12461     12456     12458
     12456     12459     12456     12460     12461     12463     12461     12469
     12463     12466     12463     12465     12466     12468     12466     12472
     12472     12469     12469     12471     12472     12474     12475     12472
     12476     12477     12481     12482     12483     12484     12486     12487
     12489     12490     12492     12493     12476     12481     12476     12478
     12476     12479     12476     12480     12481     12483     12481     12489
     12483     12486     12483     12485     12486     12488     12486     12492
     12492     12489     12489     12491     12492     12494     12495     12492
     12496     12497     12501     12502     12503     12504     12506     12507
     12509     12510     12512     12513     12496     12501     12496     12498
     12496     12499     12496     12500     12501     12503     12501     12509
     12503     12506     12503     12505     12506     12508     12506     12512
     12512     12509     12509     12511     12512     12514     12515     12512
     12516     12517     12521     12522     12523     12524     12526     12527
     12529     12530     12532     12533     12516     12521     12516     12518
     12516     12519     12516     12520     12521     12523     12521     12529
     12523     12526     12523     12525     12526     12528     12526     12532
     12532     12529     12529     12531     12532     12534     12535     12532
     12536     12537     12541     12542     12543     12544     12546     12547
     12549     12550     12552     12553     12536     12541     12536     12538
     12536     12539     12536     12540     12541     12543     12541     12549
     12543     12546     12543     12545     12546     12548     12546     12552
     12552     12549     12549     12551     12552     12554     12555     12552
     12556     12557     12561     12562     12563     12564     12566     12567
     12569     12570     12572     12573     12556     12561     12556     12558
     12556     12559     12556     12560     12561     12563     12561     12569
     12563     12566     12563     12565     12566     12568     12566     12572
     12572     12569     12569     12571     12572     12574     12575     12572
     12576     12577     12581     12582     12583     12584     12586     12587
     12589     12590     12592     12593     12576     12581     12576     12578
     12576     12579     12576     12580     12581     12583     12581     12589
     12583     12586     12583     12585     12586     12588     12586     12592
     12592     12589     12589     12591     12592     12594     12595     12592
     12596     12597     12601     12602     12603     12604     12606     12607
     12609     12610     12612     12613     12596     12601     12596     12598
     12596     12599     12596     12600     12601     12603     12601     12609
     12603     12606     12603     12605     12606     12608     12606     12612
     12612     12609     12609     12611     12612     12614     12615     12612
     12616     12617     12621     12622     12623     12624     12626     12627
     12629     12630     12632     12633     12616     12621     12616     12618
     12616     12619     12616     12620     12621     12623     12621     12629
     12623     12626     12623     12625     12626     12628     12626     12632
     12632     12629     12629     12631     12632     12634     12635     12632
     12636     12637     12641     12642     12643     12644     12646     12647
     12649     12650     12652     12653     12636     12641     12636     12638
     12636     12639     12636     12640     12641     12643     12641     12649
     12643     12646     12643     12645     12646     12648     12646     12652
     12652     12649     12649     12651     12652     12654     12655     12652
     12656     12657     12661     12662     12663     12664     12666     12667
     12669     12670     12672     12673     12656     12661     12656     12658
     12656     12659     12656     12660     12661     12663     12661     12669
     12663     12666     12663     12665     12666     12668     12666     12672
     12672     12669     12669     12671     12672     12674     12675     12672
     12676     12677     12681     12682     12683     12684     12686     12687
     12689     12690     12692     12693     12676     12681     12676     12678
     12676     12679     12676     12680     12681     12683     12681     12689
     12683     12686     12683     12685     12686     12688     12686     12692
     12692     12689     12689     12691     12692     12694     12695     12692
     12696     12697     12701     12702     12703     12704     12706     12707
     12709     12710     12712     12713     12696     12701     12696     12698
     12696     12699     12696     12700     12701     12703     12701     12709
     12703     12706     12703     12705     12706     12708     12706     12712
     12712     12709     12709     12711     12712     12714     12715     12712
     12716     12717     12721     12722     12723     12724     12726     12727
     12729     12730     12732     12733     12716     12721     12716     12718
     12716     12719     12716     12720     12721     12723     12721     12729
     12723     12726     12723     12725     12726     12728     12726     12732
     12732     12729     12729     12731     12732     12734     12735     12732
     12736     12737     12741     12742     12743     12744     12746     12747
     12749     12750     12752     12753     12736     12741     12736     12738
     12736     12739     12736     12740     12741     12743     12741     12749
     12743     12746     12743     12745     12746     12748     12746     12752
     12752     12749     12749     12751     12752     12754     12755     12752
     12756     12757     12761     12762     12763     12764     12766     12767
     12769     12770     12772     12773     12756     12761     12756     12758
     12756     12759     12756     12760     12761     12763     12761     12769
     12763     12766     12763     12765     12766     12768     12766     12772
     12772     12769     12769     12771     12772     12774     12775     12772
     12776     12777     12781     12782     12783     12784     12786     12787
     12789     12790     12792     12793     12776     12781     12776     12778
     12776     12779     12776     12780     12781     12783     12781     12789
     12783     12786     12783     12785     12786     12788     12786     12792
     12792     12789     12789     12791     12792     12794     12795     12792
     12796     12797     12801     12802     12803     12804     12806     12807
     12809     12810     12812     12813     12796     12801     12796     12798
     12796     12799     12796     12800     12801     12803     12801     12809
     12803     12806     12803     12805     12806     12808     12806     12812
     12812     12809     12809     12811     12812     12814     12815     12812
     12816     12817     12821     12822     12823     12824     12826     12827
     12829     12830     12832     12833     12816     12821     12816     12818
     12816     12819     12816     12820     12821     12823     12821     12829
     12823     12826     12823     12825     12826     12828     12826     12832
     12832     12829     12829     12831     12832     12834     12835     12832
     12836     12837     12841     12842     12843     12844     12846     12847
     12849     12850     12852     12853     12836     12841     12836     12838
     12836     12839     12836     12840     12841     12843     12841     12849
     12843     12846     12843     12845     12846     12848     12846     12852
     12852     12849     12849     12851     12852     12854     12855     12852
     12856     12857     12861     12862     12863     12864     12866     12867
     12869     12870     12872     12873     12856     12861     12856     12858
     12856     12859     12856     12860     12861     12863     12861     12869
     12863     12866     12863     12865     12866     12868     12866     12872
     12872     12869     12869     12871     12872     12874     12875     12872
     12876     12877     12881     12882     12883     12884     12886     12887
     12889     12890     12892     12893     12876     12881     12876     12878
     12876     12879     12876     12880     12881     12883     12881     12889
     12883     12886     12883     12885     12886     12888     12886     12892
     12892     12889     12889     12891     12892     12894     12895     12892
     12896     12897     12901     12902     12903     12904     12906     12907
     12909     12910     12912     12913     12896     12901     12896     12898
     12896     12899     12896     12900     12901     12903     12901     12909
     12903     12906     12903     12905     12906     12908     12906     12912
     12912     12909     12909     12911     12912     12914     12915     12912
     12916     12917     12921     12922     12923     12924     12926     12927
     12929     12930     12932     12933     12916     12921     12916     12918
     12916     12919     12916     12920     12921     12923     12921     12929
     12923     12926     12923     12925     12926     12928     12926     12932
     12932     12929     12929     12931     12932     12934     12935     12932
     12936     12937     12941     12942     12943     12944     12946     12947
     12949     12950     12952     12953     12936     12941     12936     12938
     12936     12939     12936     12940     12941     12943     12941     12949
     12943     12946     12943     12945     12946     12948     12946     12952
     12952     12949     12949     12951     12952     12954     12955     12952
     12956     12957     12961     12962     12963     12964     12966     12967
     12969     12970     12972     12973     12956     12961     12956     12958
     12956     12959     12956     12960     12961     12963     12961     12969
     12963     12966     12963     12965     12966     12968     12966     12972
     12972     12969     12969     12971     12972     12974     12975     12972
     12976     12977     12981     12982     12983     12984     12986     12987
     12989     12990     12992     12993     12976     12981     12976     12978
     12976     12979     12976     12980     12981     12983     12981     12989
     12983     12986     12983     12985     12986     12988     12986     12992
     12992     12989     12989     12991     12992     12994     12995     12992
     12996     12997     13001     13002     13003     13004     13006     13007
     13009     13010     13012     13013     12996     13001     12996     12998
     12996     12999     12996     13000     13001     13003     13001     13009
     13003     13006     13003     13005     13006     13008     13006     13012
     13012     13009     13009     13011     13012     13014     13015     13012
     13016     13017     13021     13022     13023     13024     13026     13027
     13029     13030     13032     13033     13016     13021     13016     13018
     13016     13019     13016     13020     13021     13023     13021     13029
     13023     13026     13023     13025     13026     13028     13026     13032
     13032     13029     13029     13031     13032     13034     13035     13032
     13036     13037     13041     13042     13043     13044     13046     13047
     13049     13050     13052     13053     13036     13041     13036     13038
     13036     13039     13036     13040     13041     13043     13041     13049
     13043     13046     13043     13045     13046     13048     13046     13052
     13052     13049     13049     13051     13052     13054     13055     13052
     13056     13057     13061     13062     13063     13064     13066     13067
     13069     13070     13072     13073     13056     13061     13056     13058
     13056     13059     13056     13060     13061     13063     13061     13069
     13063     13066     13063     13065     13066     13068     13066     13072
     13072     13069     13069     13071     13072     13074     13075     13072
     13076     13077     13081     13082     13083     13084     13086     13087
     13089     13090     13092     13093     13076     13081     13076     13078
     13076     13079     13076     13080     13081     13083     13081     13089
     13083     13086     13083     13085     13086     13088     13086     13092
     13092     13089     13089     13091     13092     13094     13095     13092
     13096     13097     13101     13102     13103     13104     13106     13107
     13109     13110     13112     13113     13096     13101     13096     13098
     13096     13099     13096     13100     13101     13103     13101     13109
     13103     13106     13103     13105     13106     13108     13106     13112
     13112     13109     13109     13111     13112     13114     13115     13112
     13116     13117     13121     13122     13123     13124     13126     13127
     13129     13130     13132     13133     13116     13121     13116     13118
     13116     13119     13116     13120     13121     13123     13121     13129
     13123     13126     13123     13125     13126     13128     13126     13132
     13132     13129     13129     13131     13132     13134     13135     13132
     13136     13137     13141     13142     13143     13144     13146     13147
     13149     13150     13152     13153     13136     13141     13136     13138
     13136     13139     13136     13140     13141     13143     13141     13149
     13143     13146     13143     13145     13146     13148     13146     13152
     13152     13149     13149     13151     13152     13154     13155     13152
     13156     13157     13161     13162     13163     13164     13166     13167
     13169     13170     13172     13173     13156     13161     13156     13158
     13156     13159     13156     13160     13161     13163     13161     13169
     13163     13166     13163     13165     13166     13168     13166     13172
     13172     13169     13169     13171     13172     13174     13175     13172
     13176     13177     13181     13182     13183     13184     13186     13187
     13189     13190     13192     13193     13176     13181     13176     13178
     13176     13179     13176     13180     13181     13183     13181     13189
     13183     13186     13183     13185     13186     13188     13186     13192
     13192     13189     13189     13191     13192     13194     13195     13192
     13196     13197     13201     13202     13203     13204     13206     13207
     13209     13210     13212     13213     13196     13201     13196     13198
     13196     13199     13196     13200     13201     13203     13201     13209
     13203     13206     13203     13205     13206     13208     13206     13212
     13212     13209     13209     13211     13212     13214     13215     13212
     13216     13217     13221     13222     13223     13224     13226     13227
     13229     13230     13232     13233     13216     13221     13216     13218
     13216     13219     13216     13220     13221     13223     13221     13229
     13223     13226     13223     13225     13226     13228     13226     13232
     13232     13229     13229     13231     13232     13234     13235     13232
     13236     13237     13241     13242     13243     13244     13246     13247
     13249     13250     13252     13253     13236     13241     13236     13238
     13236     13239     13236     13240     13241     13243     13241     13249
     13243     13246     13243     13245     13246     13248     13246     13252
     13252     13249     13249     13251     13252     13254     13255     13252
     13256     13257     13261     13262     13263     13264     13266     13267
     13269     13270     13272     13273     13256     13261     13256     13258
     13256     13259     13256     13260     13261     13263     13261     13269
     13263     13266     13263     13265     13266     13268     13266     13272
     13272     13269     13269     13271     13272     13274     13275     13272
     13276     13277     13281     13282     13283     13284     13286     13287
     13289     13290     13292     13293     13276     13281     13276     13278
     13276     13279     13276     13280     13281     13283     13281     13289
     13283     13286     13283     13285     13286     13288     13286     13292
     13292     13289     13289     13291     13292     13294     13295     13292
     13296     13297     13301     13302     13303     13304     13306     13307
     13309     13310     13312     13313     13296     13301     13296     13298
     13296     13299     13296     13300     13301     13303     13301     13309
     13303     13306     13303     13305     13306     13308     13306     13312
     13312     13309     13309     13311     13312     13314     13315     13312
     13316     13317     13321     13322     13323     13324     13326     13327
     13329     13330     13332     13333     13316     13321     13316     13318
     13316     13319     13316     13320     13321     13323     13321     13329
     13323     13326     13323     13325     13326     13328     13326     13332
     13332     13329     13329     13331     13332     13334     13335     13332
     13336     13337     13341     13342     13343     13344     13346     13347
     13349     13350     13352     13353     13336     13341     13336     13338
     13336     13339     13336     13340     13341     13343     13341     13349
     13343     13346     13343     13345     13346     13348     13346     13352
     13352     13349     13349     13351     13352     13354     13355     13352
     13356     13357     13361     13362     13363     13364     13366     13367
     13369     13370     13372     13373     13356     13361     13356     13358
     13356     13359     13356     13360     13361     13363     13361     13369
     13363     13366     13363     13365     13366     13368     13366     13372
     13372     13369     13369     13371     13372     13374     13375     13372
     13376     13377     13378     13379     13380     13381     13382     13383
     13384     13385     13386     13387     13376     13378     13376     13388
     13376     13389     13376     13390     13378     13380     13378     13391
     13378     13392     13380     13382     13380     13393     13380     13394
     13382     13384     13382     13386     13386     13395     13384     13396
     13397     13384     13398     13384     13399     13386     13400     13386
     13401     13402     13403     13404     13405     13406     13407     13408
     13409     13410     13411     13412     13401     13403     13401     13413
     13401     13414     13401     13415     13403     13405     13403     13416
     13403     13417     13405     13407     13405     13418     13405     13419
     13407     13409     13407     13411     13411     13420     13409     13421
     13422     13409     13423     13409     13424     13411     13425     13411
     13426     13427     13428     13429     13430     13431     13432     13433
     13434     13435     13436     13437     13426     13428     13426     13438
     13426     13439     13426     13440     13428     13430     13428     13441
     13428     13442     13430     13432     13430     13443     13430     13444
     13432     13434     13432     13436     13436     13445     13434     13446
     13447     13434     13448     13434     13449     13436     13450     13436
     13451     13452     13453     13454     13455     13456     13457     13458
     13459     13460     13461     13462     13451     13453     13451     13463
     13451     13464     13451     13465     13453     13455     13453     13466
     13453     13467     13455     13457     13455     13468     13455     13469
     13457     13459     13457     13461     13461     13470     13459     13471
     13472     13459     13473     13459     13474     13461     13475     13461
     13476     13477     13478     13479     13480     13481     13482     13483
     13484     13485     13486     13487     13476     13478     13476     13488
     13476     13489     13476     13490     13478     13480     13478     13491
     13478     13492     13480     13482     13480     13493     13480     13494
     13482     13484     13482     13486     13486     13495     13484     13496
     13497     13484     13498     13484     13499     13486     13500     13486
     13501     13502     13503     13504     13505     13506     13507     13508
     13509     13510     13511     13512     13501     13503     13501     13513
     13501     13514     13501     13515     13503     13505     13503     13516
     13503     13517     13505     13507     13505     13518     13505     13519
     13507     13509     13507     13511     13511     13520     13509     13521
     13522     13509     13523     13509     13524     13511     13525     13511
     13526     13527     13528     13529     13530     13531     13532     13533
     13534     13535     13536     13537     13526     13528     13526     13538
     13526     13539     13526     13540     13528     13530     13528     13541
     13528     13542     13530     13532     13530     13543     13530     13544
     13532     13534     13532     13536     13536     13545     13534     13546
     13547     13534     13548     13534     13549     13536     13550     13536
     13551     13552     13553     13554     13555     13556     13557     13558
     13559     13560     13561     13562     13551     13553     13551     13563
     13551     13564     13551     13565     13553     13555     13553     13566
     13553     13567     13555     13557     13555     13568     13555     13569
     13557     13559     13557     13561     13561     13570     13559     13571
     13572     13559     13573     13559     13574     13561     13575     13561
     13576     13577     13578     13579     13580     13581     13582     13583
     13584     13585     13586     13587     13576     13578     13576     13588
     13576     13589     13576     13590     13578     13580     13578     13591
     13578     13592     13580     13582     13580     13593     13580     13594
     13582     13584     13582     13586     13586     13595     13584     13596
     13597     13584     13598     13584     13599     13586     13600     13586
     13601     13602     13603     13604     13605     13606     13607     13608
     13609     13610     13611     13612     13601     13603     13601     13613
     13601     13614     13601     13615     13603     13605     13603     13616
     13603     13617     13605     13607     13605     13618     13605     13619
     13607     13609     13607     13611     13611     13620     13609     13621
     13622     13609     13623     13609     13624     13611     13625     13611
     13626     13627     13628     13629     13630     13631     13632     13633
     13634     13635     13636     13637     13626     13628     13626     13638
     13626     13639     13626     13640     13628     13630     13628     13641
     13628     13642     13630     13632     13630     13643     13630     13644
     13632     13634     13632     13636     13636     13645     13634     13646
     13647     13634     13648     13634     13649     13636     13650     13636
     13651     13652     13653     13654     13655     13656     13657     13658
     13659     13660     13661     13662     13651     13653     13651     13663
     13651     13664     13651     13665     13653     13655     13653     13666
     13653     13667     13655     13657     13655     13668     13655     13669
     13657     13659     13657     13661     13661     13670     13659     13671
     13672     13659     13673     13659     13674     13661     13675     13661
     13676     13677     13678     13679     13680     13681     13682     13683
     13684     13685     13686     13687     13676     13678     13676     13688
     13676     13689     13676     13690     13678     13680     13678     13691
     13678     13692     13680     13682     13680     13693     13680     13694
     13682     13684     13682     13686     13686     13695     13684     13696
     13697     13684     13698     13684     13699     13686     13700     13686
     13701     13702     13703     13704     13705     13706     13707     13708
     13709     13710     13711     13712     13701     13703     13701     13713
     13701     13714     13701     13715     13703     13705     13703     13716
     13703     13717     13705     13707     13705     13718     13705     13719
     13707     13709     13707     13711     13711     13720     13709     13721
     13722     13709     13723     13709     13724     13711     13725     13711
     13726     13727     13728     13729     13730     13731     13732     13733
     13734     13735     13736     13737     13726     13728     13726     13738
     13726     13739     13726     13740     13728     13730     13728     13741
     13728     13742     13730     13732     13730     13743     13730     13744
     13732     13734     13732     13736     13736     13745     13734     13746
     13747     13734     13748     13734     13749     13736     13750     13736
     13751     13752     13753     13754     13755     13756     13757     13758
     13759     13760     13761     13762     13751     13753     13751     13763
     13751     13764     13751     13765     13753     13755     13753     13766
     13753     13767     13755     13757     13755     13768     13755     13769
     13757     13759     13757     13761     13761     13770     13759     13771
     13772     13759     13773     13759     13774     13761     13775     13761
     13776     13777     13778     13779     13780     13781     13782     13783
     13784     13785     13786     13787     13776     13778     13776     13788
     13776     13789     13776     13790     13778     13780     13778     13791
     13778     13792     13780     13782     13780     13793     13780     13794
     13782     13784     13782     13786     13786     13795     13784     13796
     13797     13784     13798     13784     13799     13786     13800     13786
     13801     13802     13803     13804     13805     13806     13807     13808
     13809     13810     13811     13812     13801     13803     13801     13813
     13801     13814     13801     13815     13803     13805     13803     13816
     13803     13817     13805     13807     13805     13818     13805     13819
     13807     13809     13807     13811     13811     13820     13809     13821
     13822     13809     13823     13809     13824     13811     13825     13811
     13826     13827     13828     13829     13830     13831     13832     13833
     13834     13835     13836     13837     13826     13828     13826     13838
     13826     13839     13826     13840     13828     13830     13828     13841
     13828     13842     13830     13832     13830     13843     13830     13844
     13832     13834     13832     13836     13836     13845     13834     13846
     13847     13834     13848     13834     13849     13836     13850     13836
     13851     13852     13853     13854     13855     13856     13857     13858
     13859     13860     13861     13862     13851     13853     13851     13863
     13851     13864     13851     13865     13853     13855     13853     13866
     13853     13867     13855     13857     13855     13868     13855     13869
     13857     13859     13857     13861     13861     13870     13859     13871
     13872     13859     13873     13859     13874     13861     13875     13861
     13876     13877     13878     13879     13880     13881     13882     13883
     13884     13885     13886     13887     13876     13878     13876     13888
     13876     13889     13876     13890     13878     13880     13878     13891
     13878     13892     13880     13882     13880     13893     13880     13894
     13882     13884     13882     13886     13886     13895     13884     13896
     13897     13884     13898     13884     13899     13886     13900     13886
     13901     13902     13903     13904     13905     13906     13907     13908
     13909     13910     13911     13912     13901     13903     13901     13913
     13901     13914     13901     13915     13903     13905     13903     13916
     13903     13917     13905     13907     13905     13918     13905     13919
     13907     13909     13907     13911     13911     13920     13909     13921
     13922     13909     13923     13909     13924     13911     13925     13911
     13926     13927     13928     13929     13930     13931     13932     13933
     13934     13935     13936     13937     13926     13928     13926     13938
     13926     13939     13926     13940     13928     13930     13928     13941
     13928     13942     13930     13932     13930     13943     13930     13944
     13932     13934     13932     13936     13936     13945     13934     13946
     13947     13934     13948     13934     13949     13936     13950     13936
     13951     13952     13953     13954     13955     13956     13957     13958
     13959     13960     13961     13962     13951     13953     13951     13963
     13951     13964     13951     13965     13953     13955     13953     13966
     13953     13967     13955     13957     13955     13968     13955     13969
     13957     13959     13957     13961     13961     13970     13959     13971
     13972     13959     13973     13959     13974     13961     13975     13961
     13976     13977     13978     13979     13980     13981     13982     13983
     13984     13985     13986     13987     13976     13978     13976     13988
     13976     13989     13976     13990     13978     13980     13978     13991
     13978     13992     13980     13982     13980     13993     13980     13994
     13982     13984     13982     13986     13986     13995     13984     13996
     13997     13984     13998     13984     13999     13986     14000     13986
     14001     14002     14003     14004     14005     14006     14007     14008
     14009     14010     14011     14012     14001     14003     14001     14013
     14001     14014     14001     14015     14003     14005     14003     14016
     14003     14017     14005     14007     14005     14018     14005     14019
     14007     14009     14007     14011     14011     14020     14009     14021
     14022     14009     14023     14009     14024     14011     14025     14011
     14026     14027     14028     14029     14030     14031     14032     14033
     14034     14035     14036     14037     14026     14028     14026     14038
     14026     14039     14026     14040     14028     14030     14028     14041
     14028     14042     14030     14032     14030     14043     14030     14044
     14032     14034     14032     14036     14036     14045     14034     14046
     14047     14034     14048     14034     14049     14036     14050     14036
     14051     14052     14053     14054     14055     14056     14057     14058
     14059     14060     14061     14062     14051     14053     14051     14063
     14051     14064     14051     14065     14053     14055     14053     14066
     14053     14067     14055     14057     14055     14068     14055     14069
     14057     14059     14057     14061     14061     14070     14059     14071
     14072     14059     14073     14059     14074     14061     14075     14061
     14076     14077     14078     14079     14080     14081     14082     14083
     14084     14085     14086     14087     14076     14078     14076     14088
     14076     14089     14076     14090     14078     14080     14078     14091
     14078     14092     14080     14082     14080     14093     14080     14094
     14082     14084     14082     14086     14086     14095     14084     14096
     14097     14084     14098     14084     14099     14086     14100     14086
     14101     14102     14103     14104     14105     14106     14107     14108
     14109     14110     14111     14112     14101     14103     14101     14113
     14101     14114     14101     14115     14103     14105     14103     14116
     14103     14117     14105     14107     14105     14118     14105     14119
     14107     14109     14107     14111     14111     14120     14109     14121
     14122     14109     14123     14109     14124     14111     14125     14111
     14126     14127     14128     14129     14130     14131     14132     14133
     14134     14135     14136     14137     14126     14128     14126     14138
     14126     14139     14126     14140     14128     14130     14128     14141
     14128     14142     14130     14132     14130     14143     14130     14144
     14132     14134     14132     14136     14136     14145     14134     14146
     14147     14134     14148     14134     14149     14136     14150     14136
     14151     14152     14153     14154     14155     14156     14157     14158
     14159     14160     14161     14162     14151     14153     14151     14163
     14151     14164     14151     14165     14153     14155     14153     14166
     14153     14167     14155     14157     14155     14168     14155     14169
     14157     14159     14157     14161     14161     14170     14159     14171
     14172     14159     14173     14159     14174     14161     14175     14161
     14176     14177     14178     14179     14180     14181     14182     14183
     14184     14185     14186     14187     14176     14178     14176     14188
     14176     14189     14176     14190     14178     14180     14178     14191
     14178     14192     14180     14182     14180     14193     14180     14194
     14182     14184     14182     14186     14186     14195     14184     14196
     14197     14184     14198     14184     14199     14186     14200     14186
     14201     14202     14203     14204     14205     14206     14207     14208
     14209     14210     14211     14212     14201     14203     14201     14213
     14201     14214     14201     14215     14203     14205     14203     14216
     14203     14217     14205     14207     14205     14218     14205     14219
     14207     14209     14207     14211     14211     14220     14209     14221
     14222     14209     14223     14209     14224     14211     14225     14211
     14226     14227     14228     14229     14230     14231     14232     14233
     14234     14235     14236     14237     14226     14228     14226     14238
     14226     14239     14226     14240     14228     14230     14228     14241
     14228     14242     14230     14232     14230     14243     14230     14244
     14232     14234     14232     14236     14236     14245     14234     14246
     14247     14234     14248     14234     14249     14236     14250     14236
     14251     14252     14253     14254     14255     14256     14257     14258
     14259     14260     14261     14262     14251     14253     14251     14263
     14251     14264     14251     14265     14253     14255     14253     14266
     14253     14267     14255     14257     14255     14268     14255     14269
     14257     14259     14257     14261     14261     14270     14259     14271
     14272     14259     14273     14259     14274     14261     14275     14261
     14276     14277     14278     14279     14280     14281     14282     14283
     14284     14285     14286     14287     14276     14278     14276     14288
     14276     14289     14276     14290     14278     14280     14278     14291
     14278     14292     14280     14282     14280     14293     14280     14294
     14282     14284     14282     14286     14286     14295     14284     14296
     14297     14284     14298     14284     14299     14286     14300     14286
     14301     14302     14303     14304     14305     14306     14307     14308
     14309     14310     14311     14312     14301     14303     14301     14313
     14301     14314     14301     14315     14303     14305     14303     14316
     14303     14317     14305     14307     14305     14318     14305     14319
     14307     14309     14307     14311     14311     14320     14309     14321
     14322     14309     14323     14309     14324     14311     14325     14311
     14326     14327     14328     14329     14330     14331     14332     14333
     14334     14335     14336     14337     14326     14328     14326     14338
     14326     14339     14326     14340     14328     14330     14328     14341
     14328     14342     14330     14332     14330     14343     14330     14344
     14332     14334     14332     14336     14336     14345     14334     14346
     14347     14334     14348     14334     14349     14336     14350     14336
     14351     14352     14353     14354     14355     14356     14357     14358
     14359     14360     14361     14362     14351     14353     14351     14363
     14351     14364     14351     14365     14353     14355     14353     14366
     14353     14367     14355     14357     14355     14368     14355     14369
     14357     14359     14357     14361     14361     14370     14359     14371
     14372     14359     14373     14359     14374     14361     14375     14361
     14376     14377     14378     14379     14380     14381     14382     14383
     14384     14385     14386     14387     14376     14378     14376     14388
     14376     14389     14376     14390     14378     14380     14378     14391
     14378     14392     14380     14382     14380     14393     14380     14394
     14382     14384     14382     14386     14386     14395     14384     14396
     14397     14384     14398     14384     14399     14386     14400     14386
     14401     14402     14403     14404     14405     14406     14407     14408
     14409     14410     14411     14412     14401     14403     14401     14413
     14401     14414     14401     14415     14403     14405     14403     14416
     14403     14417     14405     14407     14405     14418     14405     14419
     14407     14409     14407     14411     14411     14420     14409     14421
     14422     14409     14423     14409     14424     14411     14425     14411
     14426     14427     14428     14429     14430     14431     14432     14433
     14434     14435     14436     14437     14426     14428     14426     14438
     14426     14439     14426     14440     14428     14430     14428     14441
     14428     14442     14430     14432     14430     14443     14430     14444
     14432     14434     14432     14436     14436     14445     14434     14446
     14447     14434     14448     14434     14449     14436     14450     14436
     14451     14452     14453     14454     14455     14456     14457     14458
     14459     14460     14461     14462     14451     14453     14451     14463
     14451     14464     14451     14465     14453     14455     14453     14466
     14453     14467     14455     14457     14455     14468     14455     14469
     14457     14459     14457     14461     14461     14470     14459     14471
     14472     14459     14473     14459     14474     14461     14475     14461
     14476     14477     14478     14479     14480     14481     14482     14483
     14484     14485     14486     14487     14476     14478     14476     14488
     14476     14489     14476     14490     14478     14480     14478     14491
     14478     14492     14480     14482     14480     14493     14480     14494
     14482     14484     14482     14486     14486     14495     14484     14496
     14497     14484     14498     14484     14499     14486     14500     14486
     14501     14502     14503     14504     14505     14506     14507     14508
     14509     14510     14511     14512     14501     14503     14501     14513
     14501     14514     14501     14515     14503     14505     14503     14516
     14503     14517     14505     14507     14505     14518     14505     14519
     14507     14509     14507     14511     14511     14520     14509     14521
     14522     14509     14523     14509     14524     14511     14525     14511
     14526     14527     14528     14529     14530     14531     14532     14533
     14534     14535     14536     14537     14526     14528     14526     14538
     14526     14539     14526     14540     14528     14530     14528     14541
     14528     14542     14530     14532     14530     14543     14530     14544
     14532     14534     14532     14536     14536     14545     14534     14546
     14547     14534     14548     14534     14549     14536     14550     14536
     14551     14552     14553     14554     14555     14556     14557     14558
     14559     14560     14561     14562     14551     14553     14551     14563
     14551     14564     14551     14565     14553     14555     14553     14566
     14553     14567     14555     14557     14555     14568     14555     14569
     14557     14559     14557     14561     14561     14570     14559     14571
     14572     14559     14573     14559     14574     14561     14575     14561
     14576     14577     14578     14579     14580     14581     14582     14583
     14584     14585     14586     14587     14576     14578     14576     14588
     14576     14589     14576     14590     14578     14580     14578     14591
     14578     14592     14580     14582     14580     14593     14580     14594
     14582     14584     14582     14586     14586     14595     14584     14596
     14597     14584     14598     14584     14599     14586     14600     14586
     14601     14602     14603     14604     14605     14606     14607     14608
     14609     14610     14611     14612     14601     14603     14601     14613
     14601     14614     14601     14615     14603     14605     14603     14616
     14603     14617     14605     14607     14605     14618     14605     14619
     14607     14609     14607     14611     14611     14620     14609     14621
     14622     14609     14623     14609     14624     14611     14625     14611
     14626     14627     14628     14629     14630     14631     14632     14633
     14634     14635     14636     14637     14626     14628     14626     14638
     14626     14639     14626     14640     14628     14630     14628     14641
     14628     14642     14630     14632     14630     14643     14630     14644
     14632     14634     14632     14636     14636     14645     14634     14646
     14647     14634     14648     14634     14649     14636     14650     14636
     14651     14652     14653     14654     14655     14656     14657     14658
     14659     14660     14661     14662     14651     14653     14651     14663
     14651     14664     14651     14665     14653     14655     14653     14666
     14653     14667     14655     14657     14655     14668     14655     14669
     14657     14659     14657     14661     14661     14670     14659     14671
     14672     14659     14673     14659     14674     14661     14675     14661
     14676     14677     14678     14679     14680     14681     14682     14683
     14684     14685     14686     14687     14676     14678     14676     14688
     14676     14689     14676     14690     14678     14680     14678     14691
     14678     14692     14680     14682     14680     14693     14680     14694
     14682     14684     14682     14686     14686     14695     14684     14696
     14697     14684     14698     14684     14699     14686     14700     14686
     14701     14702     14703     14704     14705     14706     14707     14708
     14709     14710     14711     14712     14701     14703     14701     14713
     14701     14714     14701     14715     14703     14705     14703     14716
     14703     14717     14705     14707     14705     14718     14705     14719
     14707     14709     14707     14711     14711     14720     14709     14721
     14722     14709     14723     14709     14724     14711     14725     14711
     14726     14727     14728     14729     14730     14731     14732     14733
     14734     14735     14736     14737     14726     14728     14726     14738
     14726     14739     14726     14740     14728     14730     14728     14741
     14728     14742     14730     14732     14730     14743     14730     14744
     14732     14734     14732     14736     14736     14745     14734     14746
     14747     14734     14748     14734     14749     14736     14750     14736
     14751     14752     14753     14754     14755     14756     14757     14758
     14759     14760     14761     14762     14751     14753     14751     14763
     14751     14764     14751     14765     14753     14755     14753     14766
     14753     14767     14755     14757     14755     14768     14755     14769
     14757     14759     14757     14761     14761     14770     14759     14771
     14772     14759     14773     14759     14774     14761     14775     14761
     14776     14777     14778     14779     14780     14781     14782     14783
     14784     14785     14786     14787     14776     14778     14776     14788
     14776     14789     14776     14790     14778     14780     14778     14791
     14778     14792     14780     14782     14780     14793     14780     14794
     14782     14784     14782     14786     14786     14795     14784     14796
     14797     14784     14798     14784     14799     14786     14800     14786
     14801     14802     14803     14804     14805     14806     14807     14808
     14809     14810     14811     14812     14801     14803     14801     14813
     14801     14814     14801     14815     14803     14805     14803     14816
     14803     14817     14805     14807     14805     14818     14805     14819
     14807     14809     14807     14811     14811     14820     14809     14821
     14822     14809     14823     14809     14824     14811     14825     14811
     14826     14827     14828     14829     14830     14831     14832     14833
     14834     14835     14836     14837     14826     14828     14826     14838
     14826     14839     14826     14840     14828     14830     14828     14841
     14828     14842     14830     14832     14830     14843     14830     14844
     14832     14834     14832     14836     14836     14845     14834     14846
     14847     14834     14848     14834     14849     14836     14850     14836
     14851     14852     14853     14854     14855     14856     14857     14858
     14859     14860     14861     14862     14851     14853     14851     14863
     14851     14864     14851     14865     14853     14855     14853     14866
     14853     14867     14855     14857     14855     14868     14855     14869
     14857     14859     14857     14861     14861     14870     14859     14871
     14872     14859     14873     14859     14874     14861     14875     14861
     14876     14877     14878     14879     14880     14881     14882     14883
     14884     14885     14886     14887     14876     14878     14876     14888
     14876     14889     14876     14890     14878     14880     14878     14891
     14878     14892     14880     14882     14880     14893     14880     14894
     14882     14884     14882     14886     14886     14895     14884     14896
     14897     14884     14898     14884     14899     14886     14900     14886
     14901     14902     14903     14904     14905     14906     14907     14908
     14909     14910     14911     14912     14901     14903     14901     14913
     14901     14914     14901     14915     14903     14905     14903     14916
     14903     14917     14905     14907     14905     14918     14905     14919
     14907     14909     14907     14911     14911     14920     14909     14921
     14922     14909     14923     14909     14924     14911     14925     14911
     14926     14927     14928     14929     14930     14931     14932     14933
     14934     14935     14936     14937     14926     14928     14926     14938
     14926     14939     14926     14940     14928     14930     14928     14941
     14928     14942     14930     14932     14930     14943     14930     14944
     14932     14934     14932     14936     14936     14945     14934     14946
     14947     14934     14948     14934     14949     14936     14950     14936
     14951     14952     14953     14954     14955     14956     14957     14958
     14959     14960     14961     14962     14951     14953     14951     14963
     14951     14964     14951     14965     14953     14955     14953     14966
     14953     14967     14955     14957     14955     14968     14955     14969
     14957     14959     14957     14961     14961     14970     14959     14971
     14972     14959     14973     14959     14974     14961     14975     14961
     14976     14977     14978     14979     14980     14981     14982     14983
     14984     14985     14986     14987     14976     14978     14976     14988
     14976     14989     14976     14990     14978     14980     14978     14991
     14978     14992     14980     14982     14980     14993     14980     14994
     14982     14984     14982     14986     14986     14995     14984     14996
     14997     14984     14998     14984     14999     14986     15000     14986
     15001     15002     15003     15004     15005     15006     15007     15008
     15009     15010     15011     15012     15001     15003     15001     15013
     15001     15014     15001     15015     15003     15005     15003     15016
     15003     15017     15005     15007     15005     15018     15005     15019
     15007     15009     15007     15011     15011     15020     15009     15021
     15022     15009     15023     15009     15024     15011     15025     15011
     15026     15027     15028     15029     15030     15031     15032     15033
     15034     15035     15036     15037     15026     15028     15026     15038
     15026     15039     15026     15040     15028     15030     15028     15041
     15028     15042     15030     15032     15030     15043     15030     15044
     15032     15034     15032     15036     15036     15045     15034     15046
     15047     15034     15048     15034     15049     15036     15050     15036
     15051     15052     15053     15054     15055     15056     15057     15058
     15059     15060     15061     15062     15051     15053     15051     15063
     15051     15064     15051     15065     15053     15055     15053     15066
     15053     15067     15055     15057     15055     15068     15055     15069
     15057     15059     15057     15061     15061     15070     15059     15071
     15072     15059     15073     15059     15074     15061     15075     15061
     15076     15077     15078     15079     15080     15081     15082     15083
     15084     15085     15086     15087     15076     15078     15076     15088
     15076     15089     15076     15090     15078     15080     15078     15091
     15078     15092     15080     15082     15080     15093     15080     15094
     15082     15084     15082     15086     15086     15095     15084     15096
     15097     15084     15098     15084     15099     15086     15100     15086
     15101     15102     15103     15104     15105     15106     15107     15108
     15109     15110     15111     15112     15101     15103     15101     15113
     15101     15114     15101     15115     15103     15105     15103     15116
     15103     15117     15105     15107     15105     15118     15105     15119
     15107     15109     15107     15111     15111     15120     15109     15121
     15122     15109     15123     15109     15124     15111     15125     15111
     15126     15127     15128     15129     15130     15131     15132     15133
     15134     15135     15136     15137     15126     15128     15126     15138
     15126     15139     15126     15140     15128     15130     15128     15141
     15128     15142     15130     15132     15130     15143     15130     15144
     15132     15134     15132     15136     15136     15145     15134     15146
     15147     15134     15148     15134     15149     15136     15150     15136
     15151     15152     15153     15154     15155     15156     15157     15158
     15159     15160     15161     15162     15151     15153     15151     15163
     15151     15164     15151     15165     15153     15155     15153     15166
     15153     15167     15155     15157     15155     15168     15155     15169
     15157     15159     15157     15161     15161     15170     15159     15171
     15172     15159     15173     15159     15174     15161     15175     15161
     15176     15177     15178     15179     15180     15181     15182     15183
     15184     15185     15186     15187     15176     15178     15176     15188
     15176     15189     15176     15190     15178     15180     15178     15191
     15178     15192     15180     15182     15180     15193     15180     15194
     15182     15184     15182     15186     15186     15195     15184     15196
     15197     15184     15198     15184     15199     15186     15200     15186
     15201     15202     15203     15204     15205     15206     15207     15208
     15209     15210     15211     15212     15201     15203     15201     15213
     15201     15214     15201     15215     15203     15205     15203     15216
     15203     15217     15205     15207     15205     15218     15205     15219
     15207     15209     15207     15211     15211     15220     15209     15221
     15222     15209     15223     15209     15224     15211     15225     15211
     15226     15227     15228     15229     15230     15231     15232     15233
     15234     15235     15236     15237     15226     15228     15226     15238
     15226     15239     15226     15240     15228     15230     15228     15241
     15228     15242     15230     15232     15230     15243     15230     15244
     15232     15234     15232     15236     15236     15245     15234     15246
     15247     15234     15248     15234     15249     15236     15250     15236
     15251     15252     15253     15254     15255     15256     15257     15258
     15259     15260     15261     15262     15251     15253     15251     15263
     15251     15264     15251     15265     15253     15255     15253     15266
     15253     15267     15255     15257     15255     15268     15255     15269
     15257     15259     15257     15261     15261     15270     15259     15271
     15272     15259     15273     15259     15274     15261     15275     15261
     15276     15277     15278     15279     15280     15281     15282     15283
     15284     15285     15286     15287     15276     15278     15276     15288
     15276     15289     15276     15290     15278     15280     15278     15291
     15278     15292     15280     15282     15280     15293     15280     15294
     15282     15284     15282     15286     15286     15295     15284     15296
     15297     15284     15298     15284     15299     15286     15300     15286
     15301     15302     15303     15304     15305     15306     15307     15308
     15309     15310     15311     15312     15301     15303     15301     15313
     15301     15314     15301     15315     15303     15305     15303     15316
     15303     15317     15305     15307     15305     15318     15305     15319
     15307     15309     15307     15311     15311     15320     15309     15321
     15322     15309     15323     15309     15324     15311     15325     15311
     15326     15327     15328     15329     15330     15331     15332     15333
     15334     15335     15336     15337     15326     15328     15326     15338
     15326     15339     15326     15340     15328     15330     15328     15341
     15328     15342     15330     15332     15330     15343     15330     15344
     15332     15334     15332     15336     15336     15345     15334     15346
     15347     15334     15348     15334     15349     15336     15350     15336
     15351     15352     15353     15354     15355     15356     15357     15358
     15359     15360     15361     15362     15351     15353     15351     15363
     15351     15364     15351     15365     15353     15355     15353     15366
     15353     15367     15355     15357     15355     15368     15355     15369
     15357     15359     15357     15361     15361     15370     15359     15371
     15372     15359     15373     15359     15374     15361     15375     15361
     15376     15377     15378     15379     15380     15381     15382     15383
     15384     15385     15386     15387     15376     15378     15376     15388
     15376     15389     15376     15390     15378     15380     15378     15391
     15378     15392     15380     15382     15380     15393     15380     15394
     15382     15384     15382     15386     15386     15395     15384     15396
     15397     15384     15398     15384     15399     15386     15400     15386
     15401     15402     15403     15404     15405     15406     15407     15408
     15409     15410     15411     15412     15401     15403     15401     15413
     15401     15414     15401     15415     15403     15405     15403     15416
     15403     15417     15405     15407     15405     15418     15405     15419
     15407     15409     15407     15411     15411     15420     15409     15421
     15422     15409     15423     15409     15424     15411     15425     15411
     15426     15427     15428     15429     15430     15431     15432     15433
     15434     15435     15436     15437     15426     15428     15426     15438
     15426     15439     15426     15440     15428     15430     15428     15441
     15428     15442     15430     15432     15430     15443     15430     15444
     15432     15434     15432     15436     15436     15445     15434     15446
     15447     15434     15448     15434     15449     15436     15450     15436
     15451     15452     15453     15454     15455     15456     15457     15458
     15459     15460     15461     15462     15451     15453     15451     15463
     15451     15464     15451     15465     15453     15455     15453     15466
     15453     15467     15455     15457     15455     15468     15455     15469
     15457     15459     15457     15461     15461     15470     15459     15471
     15472     15459     15473     15459     15474     15461     15475     15461
     15476     15477     15478     15479     15480     15481     15482     15483
     15484     15485     15486     15487     15476     15478     15476     15488
     15476     15489     15476     15490     15478     15480     15478     15491
     15478     15492     15480     15482     15480     15493     15480     15494
     15482     15484     15482     15486     15486     15495     15484     15496
     15497     15484     15498     15484     15499     15486     15500     15486
     15501     15502     15503     15504     15505     15506     15507     15508
     15509     15510     15511     15512     15501     15503     15501     15513
     15501     15514     15501     15515     15503     15505     15503     15516
     15503     15517     15505     15507     15505     15518     15505     15519
     15507     15509     15507     15511     15511     15520     15509     15521
     15522     15509     15523     15509     15524     15511     15525     15511
     15526     15527     15528     15529     15530     15531     15532     15533
     15534     15535     15536     15537     15526     15528     15526     15538
     15526     15539     15526     15540     15528     15530     15528     15541
     15528     15542     15530     15532     15530     15543     15530     15544
     15532     15534     15532     15536     15536     15545     15534     15546
     15547     15534     15548     15534     15549     15536     15550     15536
     15551     15552     15553     15554     15555     15556     15557     15558
     15559     15560     15561     15562     15551     15553     15551     15563
     15551     15564     15551     15565     15553     15555     15553     15566
     15553     15567     15555     15557     15555     15568     15555     15569
     15557     15559     15557     15561     15561     15570     15559     15571
     15572     15559     15573     15559     15574     15561     15575     15561
     15576     15577     15578     15579     15580     15581     15582     15583
     15584     15585     15586     15587     15576     15578     15576     15588
     15576     15589     15576     15590     15578     15580     15578     15591
     15578     15592     15580     15582     15580     15593     15580     15594
     15582     15584     15582     15586     15586     15595     15584     15596
     15597     15584     15598     15584     15599     15586     15600     15586
     15601     15602     15603     15604     15605     15606     15607     15608
     15609     15610     15611     15612     15601     15603     15601     15613
     15601     15614     15601     15615     15603     15605     15603     15616
     15603     15617     15605     15607     15605     15618     15605     15619
     15607     15609     15607     15611     15611     15620     15609     15621
     15622     15609     15623     15609     15624     15611     15625     15611
     15626     15627     15628     15629     15630     15631     15632     15633
     15634     15635     15636     15637     15626     15628     15626     15638
     15626     15639     15626     15640     15628     15630     15628     15641
     15628     15642     15630     15632     15630     15643     15630     15644
     15632     15634     15632     15636     15636     15645     15634     15646
     15647     15634     15648     15634     15649     15636     15650     15636
     15651     15652     15653     15654     15655     15656     15657     15658
     15659     15660     15661     15662     15651     15653     15651     15663
     15651     15664     15651     15665     15653     15655     15653     15666
     15653     15667     15655     15657     15655     15668     15655     15669
     15657     15659     15657     15661     15661     15670     15659     15671
     15672     15659     15673     15659     15674     15661     15675     15661
     15676     15677     15678     15679     15680     15681     15682     15683
     15684     15685     15686     15687     15676     15678     15676     15688
     15676     15689     15676     15690     15678     15680     15678     15691
     15678     15692     15680     15682     15680     15693     15680     15694
     15682     15684     15682     15686     15686     15695     15684     15696
     15697     15684     15698     15684     15699     15686     15700     15686
     15701     15702     15703     15704     15705     15706     15707     15708
     15709     15710     15711     15712     15701     15703     15701     15713
     15701     15714     15701     15715     15703     15705     15703     15716
     15703     15717     15705     15707     15705     15718     15705     15719
     15707     15709     15707     15711     15711     15720     15709     15721
     15722     15709     15723     15709     15724     15711     15725     15711
     15726     15727     15728     15729     15730     15731     15732     15733
     15734     15735     15736     15737     15726     15728     15726     15738
     15726     15739     15726     15740     15728     15730     15728     15741
     15728     15742     15730     15732     15730     15743     15730     15744
     15732     15734     15732     15736     15736     15745     15734     15746
     15747     15734     15748     15734     15749     15736     15750     15736
     15751     15752     15753     15754     15755     15756     15757     15758
     15759     15760     15761     15762     15751     15753     15751     15763
     15751     15764     15751     15765     15753     15755     15753     15766
     15753     15767     15755     15757     15755     15768     15755     15769
     15757     15759     15757     15761     15761     15770     15759     15771
     15772     15759     15773     15759     15774     15761     15775     15761
     15776     15777     15778     15779     15780     15781     15782     15783
     15784     15785     15786     15787     15776     15778     15776     15788
     15776     15789     15776     15790     15778     15780     15778     15791
     15778     15792     15780     15782     15780     15793     15780     15794
     15782     15784     15782     15786     15786     15795     15784     15796
     15797     15784     15798     15784     15799     15786     15800     15786
     15801     15802     15803     15804     15805     15806     15807     15808
     15809     15810     15811     15812     15801     15803     15801     15813
     15801     15814     15801     15815     15803     15805     15803     15816
     15803     15817     15805     15807     15805     15818     15805     15819
     15807     15809     15807     15811     15811     15820     15809     15821
     15822     15809     15823     15809     15824     15811     15825     15811
     15826     15827     15828     15829     15830     15831     15832     15833
     15834     15835     15836     15837     15826     15828     15826     15838
     15826     15839     15826     15840     15828     15830     15828     15841
     15828     15842     15830     15832     15830     15843     15830     15844
     15832     15834     15832     15836     15836     15845     15834     15846
     15847     15834     15848     15834     15849     15836     15850     15836
     15851     15852     15853     15854     15855     15856     15857     15858
     15859     15860     15861     15862     15851     15853     15851     15863
     15851     15864     15851     15865     15853     15855     15853     15866
     15853     15867     15855     15857     15855     15868     15855     15869
     15857     15859     15857     15861     15861     15870     15859     15871
     15872     15859     15873     15859     15874     15861     15875     15861
     15876     15877     15878     15879     15880     15881     15882     15883
     15884     15885     15886     15887     15876     15878     15876     15888
     15876     15889     15876     15890     15878     15880     15878     15891
     15878     15892     15880     15882     15880     15893     15880     15894
     15882     15884     15882     15886     15886     15895     15884     15896
     15897     15884     15898     15884     15899     15886     15900     15886
     15901     15902     15903     15904     15905     15906     15907     15908
     15909     15910     15911     15912     15901     15903     15901     15913
     15901     15914     15901     15915     15903     15905     15903     15916
     15903     15917     15905     15907     15905     15918     15905     15919
     15907     15909     15907     15911     15911     15920     15909     15921
     15922     15909     15923     15909     15924     15911     15925     15911
     15926     15927     15928     15929     15930     15931     15932     15933
     15934     15935     15936     15937     15926     15928     15926     15938
     15926     15939     15926     15940     15928     15930     15928     15941
     15928     15942     15930     15932     15930     15943     15930     15944
     15932     15934     15932     15936     15936     15945     15934     15946
     15947     15934     15948     15934     15949     15936     15950     15936
     15951     15952     15953     15954     15955     15956     15957     15958
     15959     15960     15961     15962     15951     15953     15951     15963
     15951     15964     15951     15965     15953     15955     15953     15966
     15953     15967     15955     15957     15955     15968     15955     15969
     15957     15959     15957     15961     15961     15970     15959     15971
     15972     15959     15973     15959     15974     15961     15975     15961
     15976     15977     15978     15979     15980     15981     15982     15983
     15984     15985     15986     15987     15976     15978     15976     15988
     15976     15989     15976     15990     15978     15980     15978     15991
     15978     15992     15980     15982     15980     15993     15980     15994
     15982     15984     15982     15986     15986     15995     15984     15996
     15997     15984     15998     15984     15999     15986     16000     15986
     16001     16002     16003     16004     16005     16006     16007     16008
     16009     16010     16011     16012     16001     16003     16001     16013
     16001     16014     16001     16015     16003     16005     16003     16016
     16003     16017     16005     16007     16005     16018     16005     16019
     16007     16009     16007     16011     16011     16020     16009     16021
     16022     16009     16023     16009     16024     16011     16025     16011
     16026     16027     16028     16029     16030     16031     16032     16033
     16034     16035     16036     16037     16026     16028     16026     16038
     16026     16039     16026     16040     16028     16030     16028     16041
     16028     16042     16030     16032     16030     16043     16030     16044
     16032     16034     16032     16036     16036     16045     16034     16046
     16047     16034     16048     16034     16049     16036     16050     16036
     16051     16052     16053     16054     16055     16056     16057     16058
     16059     16060     16061     16062     16051     16053     16051     16063
     16051     16064     16051     16065     16053     16055     16053     16066
     16053     16067     16055     16057     16055     16068     16055     16069
     16057     16059     16057     16061     16061     16070     16059     16071
     16072     16059     16073     16059     16074     16061     16075     16061
     16076     16077     16078     16079     16080     16081     16082     16083
     16084     16085     16086     16087     16076     16078     16076     16088
     16076     16089     16076     16090     16078     16080     16078     16091
     16078     16092     16080     16082     16080     16093     16080     16094
     16082     16084     16082     16086     16086     16095     16084     16096
     16097     16084     16098     16084     16099     16086     16100     16086
     16101     16102     16103     16104     16105     16106     16107     16108
     16109     16110     16111     16112     16101     16103     16101     16113
     16101     16114     16101     16115     16103     16105     16103     16116
     16103     16117     16105     16107     16105     16118     16105     16119
     16107     16109     16107     16111     16111     16120     16109     16121
     16122     16109     16123     16109     16124     16111     16125     16111
     16126     16127     16128     16129     16130     16131     16132     16133
     16134     16135     16136     16137     16126     16128     16126     16138
     16126     16139     16126     16140     16128     16130     16128     16141
     16128     16142     16130     16132     16130     16143     16130     16144
     16132     16134     16132     16136     16136     16145     16134     16146
     16147     16134     16148     16134     16149     16136     16150     16136
     16151     16152     16153     16154     16155     16156     16157     16158
     16159     16160     16161     16162     16151     16153     16151     16163
     16151     16164     16151     16165     16153     16155     16153     16166
     16153     16167     16155     16157     16155     16168     16155     16169
     16157     16159     16157     16161     16161     16170     16159     16171
     16172     16159     16173     16159     16174     16161     16175     16161
     16176     16177     16178     16179     16180     16181     16182     16183
     16184     16185     16186     16187     16176     16178     16176     16188
     16176     16189     16176     16190     16178     16180     16178     16191
     16178     16192     16180     16182     16180     16193     16180     16194
     16182     16184     16182     16186     16186     16195     16184     16196
     16197     16184     16198     16184     16199     16186     16200     16186
     16201     16202     16203     16204     16205     16206     16207     16208
     16209     16210     16211     16212     16201     16203     16201     16213
     16201     16214     16201     16215     16203     16205     16203     16216
     16203     16217     16205     16207     16205     16218     16205     16219
     16207     16209     16207     16211     16211     16220     16209     16221
     16222     16209     16223     16209     16224     16211     16225     16211
     16226     16227     16228     16229     16230     16231     16232     16233
     16234     16235     16236     16237     16226     16228     16226     16238
     16226     16239     16226     16240     16228     16230     16228     16241
     16228     16242     16230     16232     16230     16243     16230     16244
     16232     16234     16232     16236     16236     16245     16234     16246
     16247     16234     16248     16234     16249     16236     16250     16236
     16251     16252     16253     16254     16255     16256     16257     16258
     16259     16260     16261     16262     16251     16253     16251     16263
     16251     16264     16251     16265     16253     16255     16253     16266
     16253     16267     16255     16257     16255     16268     16255     16269
     16257     16259     16257     16261     16261     16270     16259     16271
     16272     16259     16273     16259     16274     16261     16275     16261
     16276     16277     16278     16279     16280     16281     16282     16283
     16284     16285     16286     16287     16276     16278     16276     16288
     16276     16289     16276     16290     16278     16280     16278     16291
     16278     16292     16280     16282     16280     16293     16280     16294
     16282     16284     16282     16286     16286     16295     16284     16296
     16297     16284     16298     16284     16299     16286     16300     16286
     16301     16302     16303     16304     16305     16306     16307     16308
     16309     16310     16311     16312     16301     16303     16301     16313
     16301     16314     16301     16315     16303     16305     16303     16316
     16303     16317     16305     16307     16305     16318     16305     16319
     16307     16309     16307     16311     16311     16320     16309     16321
     16322     16309     16323     16309     16324     16311     16325     16311
     16326     16327     16328     16329     16330     16331     16332     16333
     16334     16335     16336     16337     16326     16328     16326     16338
     16326     16339     16326     16340     16328     16330     16328     16341
     16328     16342     16330     16332     16330     16343     16330     16344
     16332     16334     16332     16336     16336     16345     16334     16346
     16347     16334     16348     16334     16349     16336     16350     16336
     16351     16352     16353     16354     16355     16356     16357     16358
     16359     16360     16361     16362     16351     16353     16351     16363
     16351     16364     16351     16365     16353     16355     16353     16366
     16353     16367     16355     16357     16355     16368     16355     16369
     16357     16359     16357     16361     16361     16370     16359     16371
     16372     16359     16373     16359     16374     16361     16375     16361
     16376     16377     16378     16379     16380     16381     16382     16383
     16384     16385     16386     16387     16376     16378     16376     16388
     16376     16389     16376     16390     16378     16380     16378     16391
     16378     16392     16380     16382     16380     16393     16380     16394
     16382     16384     16382     16386     16386     16395     16384     16396
     16397     16384     16398     16384     16399     16386     16400     16386
     16401     16402     16403     16404     16405     16406     16407     16408
     16409     16410     16411     16412     16401     16403     16401     16413
     16401     16414     16401     16415     16403     16405     16403     16416
     16403     16417     16405     16407     16405     16418     16405     16419
     16407     16409     16407     16411     16411     16420     16409     16421
     16422     16409     16423     16409     16424     16411     16425     16411
     16426     16427     16428     16429     16430     16431     16432     16433
     16434     16435     16436     16437     16426     16428     16426     16438
     16426     16439     16426     16440     16428     16430     16428     16441
     16428     16442     16430     16432     16430     16443     16430     16444
     16432     16434     16432     16436     16436     16445     16434     16446
     16447     16434     16448     16434     16449     16436     16450     16436
     16451     16452     16453     16454     16455     16456     16457     16458
     16459     16460     16461     16462     16451     16453     16451     16463
     16451     16464     16451     16465     16453     16455     16453     16466
     16453     16467     16455     16457     16455     16468     16455     16469
     16457     16459     16457     16461     16461     16470     16459     16471
     16472     16459     16473     16459     16474     16461     16475     16461
     16476     16477     16478     16479     16480     16481     16482     16483
     16484     16485     16486     16487     16476     16478     16476     16488
     16476     16489     16476     16490     16478     16480     16478     16491
     16478     16492     16480     16482     16480     16493     16480     16494
     16482     16484     16482     16486     16486     16495     16484     16496
     16497     16484     16498     16484     16499     16486     16500     16486
     16501     16502     16503     16504     16505     16506     16507     16508
     16509     16510     16511     16512     16501     16503     16501     16513
     16501     16514     16501     16515     16503     16505     16503     16516
     16503     16517     16505     16507     16505     16518     16505     16519
     16507     16509     16507     16511     16511     16520     16509     16521
     16522     16509     16523     16509     16524     16511     16525     16511
     16526     16527     16528     16529     16530     16531     16532     16533
     16534     16535     16536     16537     16526     16528     16526     16538
     16526     16539     16526     16540     16528     16530     16528     16541
     16528     16542     16530     16532     16530     16543     16530     16544
     16532     16534     16532     16536     16536     16545     16534     16546
     16547     16534     16548     16534     16549     16536     16550     16536
     16551     16552     16553     16554     16555     16556     16557     16558
     16559     16560     16561     16562     16551     16553     16551     16563
     16551     16564     16551     16565     16553     16555     16553     16566
     16553     16567     16555     16557     16555     16568     16555     16569
     16557     16559     16557     16561     16561     16570     16559     16571
     16572     16559     16573     16559     16574     16561     16575     16561
     16576     16577     16578     16579     16580     16581     16582     16583
     16584     16585     16586     16587     16576     16578     16576     16588
     16576     16589     16576     16590     16578     16580     16578     16591
     16578     16592     16580     16582     16580     16593     16580     16594
     16582     16584     16582     16586     16586     16595     16584     16596
     16597     16584     16598     16584     16599     16586     16600     16586
     16601     16602     16603     16604     16605     16606     16607     16608
     16609     16610     16611     16612     16601     16603     16601     16613
     16601     16614     16601     16615     16603     16605     16603     16616
     16603     16617     16605     16607     16605     16618     16605     16619
     16607     16609     16607     16611     16611     16620     16609     16621
     16622     16609     16623     16609     16624     16611     16625     16611
     16626     16627     16628     16629     16630     16631     16632     16633
     16634     16635     16636     16637     16626     16628     16626     16638
     16626     16639     16626     16640     16628     16630     16628     16641
     16628     16642     16630     16632     16630     16643     16630     16644
     16632     16634     16632     16636     16636     16645     16634     16646
     16647     16634     16648     16634     16649     16636     16650     16636
     16651     16652     16653     16654     16655     16656     16657     16658
     16659     16660     16661     16662     16651     16653     16651     16663
     16651     16664     16651     16665     16653     16655     16653     16666
     16653     16667     16655     16657     16655     16668     16655     16669
     16657     16659     16657     16661     16661     16670     16659     16671
     16672     16659     16673     16659     16674     16661     16675     16661
     16676     16677     16678     16679     16680     16681     16682     16683
     16684     16685     16686     16687     16676     16678     16676     16688
     16676     16689     16676     16690     16678     16680     16678     16691
     16678     16692     16680     16682     16680     16693     16680     16694
     16682     16684     16682     16686     16686     16695     16684     16696
     16697     16684     16698     16684     16699     16686     16700     16686
     16701     16702     16703     16704     16705     16706     16707     16708
     16709     16710     16711     16712     16701     16703     16701     16713
     16701     16714     16701     16715     16703     16705     16703     16716
     16703     16717     16705     16707     16705     16718     16705     16719
     16707     16709     16707     16711     16711     16720     16709     16721
     16722     16709     16723     16709     16724     16711     16725     16711
     16726     16727     16728     16729     16730     16731     16732     16733
     16734     16735     16736     16737     16726     16728     16726     16738
     16726     16739     16726     16740     16728     16730     16728     16741
     16728     16742     16730     16732     16730     16743     16730     16744
     16732     16734     16732     16736     16736     16745     16734     16746
     16747     16734     16748     16734     16749     16736     16750     16736
     16751     16752     16753     16754     16755     16756     16757     16758
     16759     16760     16761     16762     16751     16753     16751     16763
     16751     16764     16751     16765     16753     16755     16753     16766
     16753     16767     16755     16757     16755     16768     16755     16769
     16757     16759     16757     16761     16761     16770     16759     16771
     16772     16759     16773     16759     16774     16761     16775     16761
     16776     16777     16778     16779     16780     16781     16782     16783
     16784     16785     16786     16787     16776     16778     16776     16788
     16776     16789     16776     16790     16778     16780     16778     16791
     16778     16792     16780     16782     16780     16793     16780     16794
     16782     16784     16782     16786     16786     16795     16784     16796
     16797     16784     16798     16784     16799     16786     16800     16786
     16801     16802     16803     16804     16805     16806     16807     16808
     16809     16810     16811     16812     16801     16803     16801     16813
     16801     16814     16801     16815     16803     16805     16803     16816
     16803     16817     16805     16807     16805     16818     16805     16819
     16807     16809     16807     16811     16811     16820     16809     16821
     16822     16809     16823     16809     16824     16811     16825     16811
     16826     16827     16828     16829     16830     16831     16832     16833
     16834     16835     16836     16837     16826     16828     16826     16838
     16826     16839     16826     16840     16828     16830     16828     16841
     16828     16842     16830     16832     16830     16843     16830     16844
     16832     16834     16832     16836     16836     16845     16834     16846
     16847     16834     16848     16834     16849     16836     16850     16836
     16851     16852     16853     16854     16855     16856     16857     16858
     16859     16860     16861     16862     16851     16853     16851     16863
     16851     16864     16851     16865     16853     16855     16853     16866
     16853     16867     16855     16857     16855     16868     16855     16869
     16857     16859     16857     16861     16861     16870     16859     16871
     16872     16859     16873     16859     16874     16861     16875     16861
     16876     16877     16878     16879     16880     16881     16882     16883
     16884     16885     16886     16887     16876     16878     16876     16888
     16876     16889     16876     16890     16878     16880     16878     16891
     16878     16892     16880     16882     16880     16893     16880     16894
     16882     16884     16882     16886     16886     16895     16884     16896
     16897     16884     16898     16884     16899     16886     16900     16886
     16901     16902     16903     16904     16905     16906     16907     16908
     16909     16910     16911     16912     16901     16903     16901     16913
     16901     16914     16901     16915     16903     16905     16903     16916
     16903     16917     16905     16907     16905     16918     16905     16919
     16907     16909     16907     16911     16911     16920     16909     16921
     16922     16909     16923     16909     16924     16911     16925     16911
     16926     16927     16928     16929     16930     16931     16932     16933
     16934     16935     16936     16937     16926     16928     16926     16938
     16926     16939     16926     16940     16928     16930     16928     16941
     16928     16942     16930     16932     16930     16943     16930     16944
     16932     16934     16932     16936     16936     16945     16934     16946
     16947     16934     16948     16934     16949     16936     16950     16936
     16951     16952     16953     16954     16955     16956     16957     16958
     16959     16960     16961     16962     16951     16953     16951     16963
     16951     16964     16951     16965     16953     16955     16953     16966
     16953     16967     16955     16957     16955     16968     16955     16969
     16957     16959     16957     16961     16961     16970     16959     16971
     16972     16959     16973     16959     16974     16961     16975     16961
     16976     16977     16978     16979     16980     16981     16982     16983
     16984     16985     16986     16987     16976     16978     16976     16988
     16976     16989     16976     16990     16978     16980     16978     16991
     16978     16992     16980     16982     16980     16993     16980     16994
     16982     16984     16982     16986     16986     16995     16984     16996
     16997     16984     16998     16984     16999     16986     17000     16986
     17001     17002     17003     17004     17005     17006     17007     17008
     17009     17010     17011     17012     17001     17003     17001     17013
     17001     17014     17001     17015     17003     17005     17003     17016
     17003     17017     17005     17007     17005     17018     17005     17019
     17007     17009     17007     17011     17011     17020     17009     17021
     17022     17009     17023     17009     17024     17011     17025     17011
     17026     17027     17028     17029     17030     17031     17032     17033
     17034     17035     17036     17037     17026     17028     17026     17038
     17026     17039     17026     17040     17028     17030     17028     17041
     17028     17042     17030     17032     17030     17043     17030     17044
     17032     17034     17032     17036     17036     17045     17034     17046
     17047     17034     17048     17034     17049     17036     17050     17036
     17051     17052     17053     17054     17055     17056     17057     17058
     17059     17060     17061     17062     17051     17053     17051     17063
     17051     17064     17051     17065     17053     17055     17053     17066
     17053     17067     17055     17057     17055     17068     17055     17069
     17057     17059     17057     17061     17061     17070     17059     17071
     17072     17059     17073     17059     17074     17061     17075     17061
     17076     17077     17078     17079     17080     17081     17082     17083
     17084     17085     17086     17087     17076     17078     17076     17088
     17076     17089     17076     17090     17078     17080     17078     17091
     17078     17092     17080     17082     17080     17093     17080     17094
     17082     17084     17082     17086     17086     17095     17084     17096
     17097     17084     17098     17084     17099     17086     17100     17086
     17101     17102     17103     17104     17105     17106     17107     17108
     17109     17110     17111     17112     17101     17103     17101     17113
     17101     17114     17101     17115     17103     17105     17103     17116
     17103     17117     17105     17107     17105     17118     17105     17119
     17107     17109     17107     17111     17111     17120     17109     17121
     17122     17109     17123     17109     17124     17111     17125     17111
     17126     17127     17128     17129     17130     17131     17132     17133
     17134     17135     17136     17137     17126     17128     17126     17138
     17126     17139     17126     17140     17128     17130     17128     17141
     17128     17142     17130     17132     17130     17143     17130     17144
     17132     17134     17132     17136     17136     17145     17134     17146
     17147     17134     17148     17134     17149     17136     17150     17136
     17151     17152     17153     17154     17155     17156     17157     17158
     17159     17160     17161     17162     17151     17153     17151     17163
     17151     17164     17151     17165     17153     17155     17153     17166
     17153     17167     17155     17157     17155     17168     17155     17169
     17157     17159     17157     17161     17161     17170     17159     17171
     17172     17159     17173     17159     17174     17161     17175     17161
     17176     17177     17178     17179     17180     17181     17182     17183
     17184     17185     17186     17187     17176     17178     17176     17188
     17176     17189     17176     17190     17178     17180     17178     17191
     17178     17192     17180     17182     17180     17193     17180     17194
     17182     17184     17182     17186     17186     17195     17184     17196
     17197     17184     17198     17184     17199     17186     17200     17186
     17201     17202     17203     17204     17205     17206     17207     17208
     17209     17210     17211     17212     17201     17203     17201     17213
     17201     17214     17201     17215     17203     17205     17203     17216
     17203     17217     17205     17207     17205     17218     17205     17219
     17207     17209     17207     17211     17211     17220     17209     17221
     17222     17209     17223     17209     17224     17211     17225     17211
     17226     17227     17228     17229     17230     17231     17232     17233
     17234     17235     17236     17237     17226     17228     17226     17238
     17226     17239     17226     17240     17228     17230     17228     17241
     17228     17242     17230     17232     17230     17243     17230     17244
     17232     17234     17232     17236     17236     17245     17234     17246
     17247     17234     17248     17234     17249     17236     17250     17236
     17251     17252     17253     17254     17255     17256     17257     17258
     17259     17260     17261     17262     17251     17253     17251     17263
     17251     17264     17251     17265     17253     17255     17253     17266
     17253     17267     17255     17257     17255     17268     17255     17269
     17257     17259     17257     17261     17261     17270     17259     17271
     17272     17259     17273     17259     17274     17261     17275     17261
     17276     17277     17278     17279     17280     17281     17282     17283
     17284     17285     17286     17287     17276     17278     17276     17288
     17276     17289     17276     17290     17278     17280     17278     17291
     17278     17292     17280     17282     17280     17293     17280     17294
     17282     17284     17282     17286     17286     17295     17284     17296
     17297     17284     17298     17284     17299     17286     17300     17286
     17301     17302     17303     17304     17305     17306     17307     17308
     17309     17310     17311     17312     17301     17303     17301     17313
     17301     17314     17301     17315     17303     17305     17303     17316
     17303     17317     17305     17307     17305     17318     17305     17319
     17307     17309     17307     17311     17311     17320     17309     17321
     17322     17309     17323     17309     17324     17311     17325     17311
     17326     17327     17328     17329     17330     17331     17332     17333
     17334     17335     17336     17337     17326     17328     17326     17338
     17326     17339     17326     17340     17328     17330     17328     17341
     17328     17342     17330     17332     17330     17343     17330     17344
     17332     17334     17332     17336     17336     17345     17334     17346
     17347     17334     17348     17334     17349     17336     17350     17336
     17351     17352     17353     17354     17355     17356     17357     17358
     17359     17360     17361     17362     17351     17353     17351     17363
     17351     17364     17351     17365     17353     17355     17353     17366
     17353     17367     17355     17357     17355     17368     17355     17369
     17357     17359     17357     17361     17361     17370     17359     17371
     17372     17359     17373     17359     17374     17361     17375     17361
     17376     17377     17378     17379     17380     17381     17382     17383
     17384     17385     17386     17387     17376     17378     17376     17388
     17376     17389     17376     17390     17378     17380     17378     17391
     17378     17392     17380     17382     17380     17393     17380     17394
     17382     17384     17382     17386     17386     17395     17384     17396
     17397     17384     17398     17384     17399     17386     17400     17386
     17401     17402     17403     17404     17405     17406     17407     17408
     17409     17410     17411     17412     17401     17403     17401     17413
     17401     17414     17401     17415     17403     17405     17403     17416
     17403     17417     17405     17407     17405     17418     17405     17419
     17407     17409     17407     17411     17411     17420     17409     17421
     17422     17409     17423     17409     17424     17411     17425     17411
     17426     17427     17428     17429     17430     17431     17432     17433
     17434     17435     17436     17437     17426     17428     17426     17438
     17426     17439     17426     17440     17428     17430     17428     17441
     17428     17442     17430     17432     17430     17443     17430     17444
     17432     17434     17432     17436     17436     17445     17434     17446
     17447     17434     17448     17434     17449     17436     17450     17436
     17451     17452     17453     17454     17455     17456     17457     17458
     17459     17460     17461     17462     17451     17453     17451     17463
     17451     17464     17451     17465     17453     17455     17453     17466
     17453     17467     17455     17457     17455     17468     17455     17469
     17457     17459     17457     17461     17461     17470     17459     17471
     17472     17459     17473     17459     17474     17461     17475     17461
     17476     17477     17478     17479     17480     17481     17482     17483
     17484     17485     17486     17487     17476     17478     17476     17488
     17476     17489     17476     17490     17478     17480     17478     17491
     17478     17492     17480     17482     17480     17493     17480     17494
     17482     17484     17482     17486     17486     17495     17484     17496
     17497     17484     17498     17484     17499     17486     17500     17486
     17501     17502     17503     17504     17505     17506     17507     17508
     17509     17510     17511     17512     17501     17503     17501     17513
     17501     17514     17501     17515     17503     17505     17503     17516
     17503     17517     17505     17507     17505     17518     17505     17519
     17507     17509     17507     17511     17511     17520     17509     17521
     17522     17509     17523     17509     17524     17511     17525     17511
     17526     17527     17528     17529     17530     17531     17532     17533
     17534     17535     17536     17537     17526     17528     17526     17538
     17526     17539     17526     17540     17528     17530     17528     17541
     17528     17542     17530     17532     17530     17543     17530     17544
     17532     17534     17532     17536     17536     17545     17534     17546
     17547     17534     17548     17534     17549     17536     17550     17536
     17551     17552     17553     17554     17555     17556     17557     17558
     17559     17560     17561     17562     17551     17553     17551     17563
     17551     17564     17551     17565     17553     17555     17553     17566
     17553     17567     17555     17557     17555     17568     17555     17569
     17557     17559     17557     17561     17561     17570     17559     17571
     17572     17559     17573     17559     17574     17561     17575     17561
     17576     17577     17578     17579     17580     17581     17582     17583
     17584     17585     17586     17587     17576     17578     17576     17588
     17576     17589     17576     17590     17578     17580     17578     17591
     17578     17592     17580     17582     17580     17593     17580     17594
     17582     17584     17582     17586     17586     17595     17584     17596
     17597     17584     17598     17584     17599     17586     17600     17586
     17601     17602     17603     17604     17605     17606     17607     17608
     17609     17610     17611     17612     17601     17603     17601     17613
     17601     17614     17601     17615     17603     17605     17603     17616
     17603     17617     17605     17607     17605     17618     17605     17619
     17607     17609     17607     17611     17611     17620     17609     17621
     17622     17609     17623     17609     17624     17611     17625     17611
     17626     17627     17628     17629     17630     17631     17632     17633
     17634     17635     17636     17637     17626     17628     17626     17638
     17626     17639     17626     17640     17628     17630     17628     17641
     17628     17642     17630     17632     17630     17643     17630     17644
     17632     17634     17632     17636     17636     17645     17634     17646
     17647     17634     17648     17634     17649     17636     17650     17636
     17651     17652     17653     17654     17655     17656     17657     17658
     17659     17660     17661     17662     17651     17653     17651     17663
     17651     17664     17651     17665     17653     17655     17653     17666
     17653     17667     17655     17657     17655     17668     17655     17669
     17657     17659     17657     17661     17661     17670     17659     17671
     17672     17659     17673     17659     17674     17661     17675     17661
     17676     17677     17678     17679     17680     17681     17682     17683
     17684     17685     17686     17687     17676     17678     17676     17688
     17676     17689     17676     17690     17678     17680     17678     17691
     17678     17692     17680     17682     17680     17693     17680     17694
     17682     17684     17682     17686     17686     17695     17684     17696
     17697     17684     17698     17684     17699     17686     17700     17686
     17701     17702     17703     17704     17705     17706     17707     17708
     17709     17710     17711     17712     17701     17703     17701     17713
     17701     17714     17701     17715     17703     17705     17703     17716
     17703     17717     17705     17707     17705     17718     17705     17719
     17707     17709     17707     17711     17711     17720     17709     17721
     17722     17709     17723     17709     17724     17711     17725     17711
     17726     17727     17728     17729     17730     17731     17732     17733
     17734     17735     17736     17737     17726     17728     17726     17738
     17726     17739     17726     17740     17728     17730     17728     17741
     17728     17742     17730     17732     17730     17743     17730     17744
     17732     17734     17732     17736     17736     17745     17734     17746
     17747     17734     17748     17734     17749     17736     17750     17736
     17751     17752     17753     17754     17755     17756     17757     17758
     17759     17760     17761     17762     17751     17753     17751     17763
     17751     17764     17751     17765     17753     17755     17753     17766
     17753     17767     17755     17757     17755     17768     17755     17769
     17757     17759     17757     17761     17761     17770     17759     17771
     17772     17759     17773     17759     17774     17761     17775     17761
     17776     17777     17778     17779     17780     17781     17782     17783
     17784     17785     17786     17787     17776     17778     17776     17788
     17776     17789     17776     17790     17778     17780     17778     17791
     17778     17792     17780     17782     17780     17793     17780     17794
     17782     17784     17782     17786     17786     17795     17784     17796
     17797     17784     17798     17784     17799     17786     17800     17786
     17801     17802     17803     17804     17805     17806     17807     17808
     17809     17810     17811     17812     17801     17803     17801     17813
     17801     17814     17801     17815     17803     17805     17803     17816
     17803     17817     17805     17807     17805     17818     17805     17819
     17807     17809     17807     17811     17811     17820     17809     17821
     17822     17809     17823     17809     17824     17811     17825     17811
     17826     17827     17828     17829     17830     17831     17832     17833
     17834     17835     17836     17837     17826     17828     17826     17838
     17826     17839     17826     17840     17828     17830     17828     17841
     17828     17842     17830     17832     17830     17843     17830     17844
     17832     17834     17832     17836     17836     17845     17834     17846
     17847     17834     17848     17834     17849     17836     17850     17836
     17851     17852     17853     17854     17855     17856     17857     17858
     17859     17860     17861     17862     17851     17853     17851     17863
     17851     17864     17851     17865     17853     17855     17853     17866
     17853     17867     17855     17857     17855     17868     17855     17869
     17857     17859     17857     17861     17861     17870     17859     17871
     17872     17859     17873     17859     17874     17861     17875     17861
     17876     17877     17878     17879     17880     17881     17882     17883
     17884     17885     17886     17887     17876     17878     17876     17888
     17876     17889     17876     17890     17878     17880     17878     17891
     17878     17892     17880     17882     17880     17893     17880     17894
     17882     17884     17882     17886     17886     17895     17884     17896
     17897     17884     17898     17884     17899     17886     17900     17886
     17901     17902     17903     17904     17905     17906     17907     17908
     17909     17910     17911     17912     17901     17903     17901     17913
     17901     17914     17901     17915     17903     17905     17903     17916
     17903     17917     17905     17907     17905     17918     17905     17919
     17907     17909     17907     17911     17911     17920     17909     17921
     17922     17909     17923     17909     17924     17911     17925     17911
     17926     17927     17928     17929     17930     17931     17932     17933
     17934     17935     17936     17937     17926     17928     17926     17938
     17926     17939     17926     17940     17928     17930     17928     17941
     17928     17942     17930     17932     17930     17943     17930     17944
     17932     17934     17932     17936     17936     17945     17934     17946
     17947     17934     17948     17934     17949     17936     17950     17936
     17951     17952     17953     17954     17955     17956     17957     17958
     17959     17960     17961     17962     17951     17953     17951     17963
     17951     17964     17951     17965     17953     17955     17953     17966
     17953     17967     17955     17957     17955     17968     17955     17969
     17957     17959     17957     17961     17961     17970     17959     17971
     17972     17959     17973     17959     17974     17961     17975     17961
     17976     17977     17978     17979     17980     17981     17982     17983
     17984     17985     17986     17987     17976     17978     17976     17988
     17976     17989     17976     17990     17978     17980     17978     17991
     17978     17992     17980     17982     17980     17993     17980     17994
     17982     17984     17982     17986     17986     17995     17984     17996
     17997     17984     17998     17984     17999     17986     18000     17986
     18001     18002     18003     18004     18005     18006     18007     18008
     18009     18010     18011     18012     18001     18003     18001     18013
     18001     18014     18001     18015     18003     18005     18003     18016
     18003     18017     18005     18007     18005     18018     18005     18019
     18007     18009     18007     18011     18011     18020     18009     18021
     18022     18009     18023     18009     18024     18011     18025     18011
     18026     18027     18028     18029     18030     18031     18032     18033
     18034     18035     18036     18037     18026     18028     18026     18038
     18026     18039     18026     18040     18028     18030     18028     18041
     18028     18042     18030     18032     18030     18043     18030     18044
     18032     18034     18032     18036     18036     18045     18034     18046
     18047     18034     18048     18034     18049     18036     18050     18036
     18051     18052     18053     18054     18055     18056     18057     18058
     18059     18060     18061     18062     18051     18053     18051     18063
     18051     18064     18051     18065     18053     18055     18053     18066
     18053     18067     18055     18057     18055     18068     18055     18069
     18057     18059     18057     18061     18061     18070     18059     18071
     18072     18059     18073     18059     18074     18061     18075     18061
     18076     18077     18078     18079     18080     18081     18082     18083
     18084     18085     18086     18087     18076     18078     18076     18088
     18076     18089     18076     18090     18078     18080     18078     18091
     18078     18092     18080     18082     18080     18093     18080     18094
     18082     18084     18082     18086     18086     18095     18084     18096
     18097     18084     18098     18084     18099     18086     18100     18086
     18101     18102     18103     18104     18105     18106     18107     18108
     18109     18110     18111     18112     18101     18103     18101     18113
     18101     18114     18101     18115     18103     18105     18103     18116
     18103     18117     18105     18107     18105     18118     18105     18119
     18107     18109     18107     18111     18111     18120     18109     18121
     18122     18109     18123     18109     18124     18111     18125     18111
     18126     18127     18128     18129     18130     18131     18132     18133
     18134     18135     18136     18137     18126     18128     18126     18138
     18126     18139     18126     18140     18128     18130     18128     18141
     18128     18142     18130     18132     18130     18143     18130     18144
     18132     18134     18132     18136     18136     18145     18134     18146
     18147     18134     18148     18134     18149     18136     18150     18136
     18151     18152     18153     18154     18155     18156     18157     18158
     18159     18160     18161     18162     18151     18153     18151     18163
     18151     18164     18151     18165     18153     18155     18153     18166
     18153     18167     18155     18157     18155     18168     18155     18169
     18157     18159     18157     18161     18161     18170     18159     18171
     18172     18159     18173     18159     18174     18161     18175     18161
     18176     18177     18178     18179     18180     18181     18182     18183
     18184     18185     18186     18187     18176     18178     18176     18188
     18176     18189     18176     18190     18178     18180     18178     18191
     18178     18192     18180     18182     18180     18193     18180     18194
     18182     18184     18182     18186     18186     18195     18184     18196
     18197     18184     18198     18184     18199     18186     18200     18186
     18201     18202     18203     18204     18205     18206     18207     18208
     18209     18210     18211     18212     18201     18203     18201     18213
     18201     18214     18201     18215     18203     18205     18203     18216
     18203     18217     18205     18207     18205     18218     18205     18219
     18207     18209     18207     18211     18211     18220     18209     18221
     18222     18209     18223     18209     18224     18211     18225     18211
     18226     18227     18228     18229     18230     18231     18232     18233
     18234     18235     18236     18237     18226     18228     18226     18238
     18226     18239     18226     18240     18228     18230     18228     18241
     18228     18242     18230     18232     18230     18243     18230     18244
     18232     18234     18232     18236     18236     18245     18234     18246
     18247     18234     18248     18234     18249     18236     18250     18236
     18251     18252     18253     18254     18255     18256     18257     18258
     18259     18260     18261     18262     18251     18253     18251     18263
     18251     18264     18251     18265     18253     18255     18253     18266
     18253     18267     18255     18257     18255     18268     18255     18269
     18257     18259     18257     18261     18261     18270     18259     18271
     18272     18259     18273     18259     18274     18261     18275     18261
     18276     18277     18278     18279     18280     18281     18282     18283
     18284     18285     18286     18287     18276     18278     18276     18288
     18276     18289     18276     18290     18278     18280     18278     18291
     18278     18292     18280     18282     18280     18293     18280     18294
     18282     18284     18282     18286     18286     18295     18284     18296
     18297     18284     18298     18284     18299     18286     18300     18286
     18301     18302     18303     18304     18305     18306     18307     18308
     18309     18310     18311     18312     18301     18303     18301     18313
     18301     18314     18301     18315     18303     18305     18303     18316
     18303     18317     18305     18307     18305     18318     18305     18319
     18307     18309     18307     18311     18311     18320     18309     18321
     18322     18309     18323     18309     18324     18311     18325     18311
     18326     18327     18328     18329     18330     18331     18332     18333
     18334     18335     18336     18337     18326     18328     18326     18338
     18326     18339     18326     18340     18328     18330     18328     18341
     18328     18342     18330     18332     18330     18343     18330     18344
     18332     18334     18332     18336     18336     18345     18334     18346
     18347     18334     18348     18334     18349     18336     18350     18336
     18351     18352     18353     18354     18355     18356     18357     18358
     18359     18360     18361     18362     18351     18353     18351     18363
     18351     18364     18351     18365     18353     18355     18353     18366
     18353     18367     18355     18357     18355     18368     18355     18369
     18357     18359     18357     18361     18361     18370     18359     18371
     18372     18359     18373     18359     18374     18361     18375     18361
     18376     18377     18378     18379     18380     18381     18382     18383
     18384     18385     18386     18387     18376     18378     18376     18388
     18376     18389     18376     18390     18378     18380     18378     18391
     18378     18392     18380     18382     18380     18393     18380     18394
     18382     18384     18382     18386     18386     18395     18384     18396
     18397     18384     18398     18384     18399     18386     18400     18386
     18401     18402     18403     18404     18405     18406     18407     18408
     18409     18410     18411     18412     18401     18403     18401     18413
     18401     18414     18401     18415     18403     18405     18403     18416
     18403     18417     18405     18407     18405     18418     18405     18419
     18407     18409     18407     18411     18411     18420     18409     18421
     18422     18409     18423     18409     18424     18411     18425     18411
     18426     18427     18428     18429     18430     18431     18432     18433
     18434     18435     18436     18437     18426     18428     18426     18438
     18426     18439     18426     18440     18428     18430     18428     18441
     18428     18442     18430     18432     18430     18443     18430     18444
     18432     18434     18432     18436     18436     18445     18434     18446
     18447     18434     18448     18434     18449     18436     18450     18436
     18451     18452     18453     18454     18455     18456     18457     18458
     18459     18460     18461     18462     18451     18453     18451     18463
     18451     18464     18451     18465     18453     18455     18453     18466
     18453     18467     18455     18457     18455     18468     18455     18469
     18457     18459     18457     18461     18461     18470     18459     18471
     18472     18459     18473     18459     18474     18461     18475     18461
     18476     18477     18478     18479     18480     18481     18482     18483
     18484     18485     18486     18487     18476     18478     18476     18488
     18476     18489     18476     18490     18478     18480     18478     18491
     18478     18492     18480     18482     18480     18493     18480     18494
     18482     18484     18482     18486     18486     18495     18484     18496
     18497     18484     18498     18484     18499     18486     18500     18486
     18501     18502     18503     18504     18505     18506     18507     18508
     18509     18510     18511     18512     18501     18503     18501     18513
     18501     18514     18501     18515     18503     18505     18503     18516
     18503     18517     18505     18507     18505     18518     18505     18519
     18507     18509     18507     18511     18511     18520     18509     18521
     18522     18509     18523     18509     18524     18511     18525     18511
     18526     18527     18528     18529     18530     18531     18532     18533
     18534     18535     18536     18537     18526     18528     18526     18538
     18526     18539     18526     18540     18528     18530     18528     18541
     18528     18542     18530     18532     18530     18543     18530     18544
     18532     18534     18532     18536     18536     18545     18534     18546
     18547     18534     18548     18534     18549     18536     18550     18536
     18551     18552     18553     18554     18555     18556     18557     18558
     18559     18560     18561     18562     18551     18553     18551     18563
     18551     18564     18551     18565     18553     18555     18553     18566
     18553     18567     18555     18557     18555     18568     18555     18569
     18557     18559     18557     18561     18561     18570     18559     18571
     18572     18559     18573     18559     18574     18561     18575     18561
     18576     18577     18578     18579     18580     18581     18582     18583
     18584     18585     18586     18587     18576     18578     18576     18588
     18576     18589     18576     18590     18578     18580     18578     18591
     18578     18592     18580     18582     18580     18593     18580     18594
     18582     18584     18582     18586     18586     18595     18584     18596
     18597     18584     18598     18584     18599     18586     18600     18586
     18601     18602     18603     18604     18605     18606     18607     18608
     18609     18610     18611     18612     18601     18603     18601     18613
     18601     18614     18601     18615     18603     18605     18603     18616
     18603     18617     18605     18607     18605     18618     18605     18619
     18607     18609     18607     18611     18611     18620     18609     18621
     18622     18609     18623     18609     18624     18611     18625     18611
     18626     18627     18628     18629     18630     18631     18632     18633
     18634     18635     18636     18637     18626     18628     18626     18638
     18626     18639     18626     18640     18628     18630     18628     18641
     18628     18642     18630     18632     18630     18643     18630     18644
     18632     18634     18632     18636     18636     18645     18634     18646
     18647     18634     18648     18634     18649     18636     18650     18636
     18651     18652     18653     18654     18655     18656     18657     18658
     18659     18660     18661     18662     18651     18653     18651     18663
     18651     18664     18651     18665     18653     18655     18653     18666
     18653     18667     18655     18657     18655     18668     18655     18669
     18657     18659     18657     18661     18661     18670     18659     18671
     18672     18659     18673     18659     18674     18661     18675     18661
     18676     18677     18678     18679     18680     18681     18682     18683
     18684     18685     18686     18687     18676     18678     18676     18688
     18676     18689     18676     18690     18678     18680     18678     18691
     18678     18692     18680     18682     18680     18693     18680     18694
     18682     18684     18682     18686     18686     18695     18684     18696
     18697     18684     18698     18684     18699     18686     18700     18686
     18701     18702     18703     18704     18705     18706     18707     18708
     18709     18710     18711     18712     18701     18703     18701     18713
     18701     18714     18701     18715     18703     18705     18703     18716
     18703     18717     18705     18707     18705     18718     18705     18719
     18707     18709     18707     18711     18711     18720     18709     18721
     18722     18709     18723     18709     18724     18711     18725     18711
     18726     18727     18728     18729     18730     18731     18732     18733
     18734     18735     18736     18737     18726     18728     18726     18738
     18726     18739     18726     18740     18728     18730     18728     18741
     18728     18742     18730     18732     18730     18743     18730     18744
     18732     18734     18732     18736     18736     18745     18734     18746
     18747     18734     18748     18734     18749     18736     18750     18736
     18751     18752     18753     18754     18755     18756     18757     18758
     18759     18760     18761     18762     18751     18753     18751     18763
     18751     18764     18751     18765     18753     18755     18753     18766
     18753     18767     18755     18757     18755     18768     18755     18769
     18757     18759     18757     18761     18761     18770     18759     18771
     18772     18759     18773     18759     18774     18761     18775     18761
     18776     18777     18778     18779     18780     18781     18782     18783
     18784     18785     18786     18787     18776     18778     18776     18788
     18776     18789     18776     18790     18778     18780     18778     18791
     18778     18792     18780     18782     18780     18793     18780     18794
     18782     18784     18782     18786     18786     18795     18784     18796
     18797     18784     18798     18784     18799     18786     18800     18786
     18801     18802     18803     18804     18805     18806     18807     18808
     18809     18810     18811     18812     18801     18803     18801     18813
     18801     18814     18801     18815     18803     18805     18803     18816
     18803     18817     18805     18807     18805     18818     18805     18819
     18807     18809     18807     18811     18811     18820     18809     18821
     18822     18809     18823     18809     18824     18811     18825     18811
     18826     18827     18828     18829     18830     18831     18832     18833
     18834     18835     18836     18837     18826     18828     18826     18838
     18826     18839     18826     18840     18828     18830     18828     18841
     18828     18842     18830     18832     18830     18843     18830     18844
     18832     18834     18832     18836     18836     18845     18834     18846
     18847     18834     18848     18834     18849     18836     18850     18836
     18851     18852     18853     18854     18855     18856     18857     18858
     18859     18860     18861     18862     18851     18853     18851     18863
     18851     18864     18851     18865     18853     18855     18853     18866
     18853     18867     18855     18857     18855     18868     18855     18869
     18857     18859     18857     18861     18861     18870     18859     18871
     18872     18859     18873     18859     18874     18861     18875     18861
     18876     18877     18878     18879     18880     18881     18882     18883
     18884     18885     18886     18887     18876     18878     18876     18888
     18876     18889     18876     18890     18878     18880     18878     18891
     18878     18892     18880     18882     18880     18893     18880     18894
     18882     18884     18882     18886     18886     18895     18884     18896
     18897     18884     18898     18884     18899     18886     18900     18886
     18901     18902     18903     18904     18905     18906     18907     18908
     18909     18910     18911     18912     18901     18903     18901     18913
     18901     18914     18901     18915     18903     18905     18903     18916
     18903     18917     18905     18907     18905     18918     18905     18919
     18907     18909     18907     18911     18911     18920     18909     18921
     18922     18909     18923     18909     18924     18911     18925     18911
     18926     18927     18928     18929     18930     18931     18932     18933
     18934     18935     18936     18937     18926     18928     18926     18938
     18926     18939     18926     18940     18928     18930     18928     18941
     18928     18942     18930     18932     18930     18943     18930     18944
     18932     18934     18932     18936     18936     18945     18934     18946
     18947     18934     18948     18934     18949     18936     18950     18936
     18951     18952     18953     18954     18955     18956     18957     18958
     18959     18960     18961     18962     18951     18953     18951     18963
     18951     18964     18951     18965     18953     18955     18953     18966
     18953     18967     18955     18957     18955     18968     18955     18969
     18957     18959     18957     18961     18961     18970     18959     18971
     18972     18959     18973     18959     18974     18961     18975     18961
     18976     18977     18978     18979     18980     18981     18982     18983
     18984     18985     18986     18987     18976     18978     18976     18988
     18976     18989     18976     18990     18978     18980     18978     18991
     18978     18992     18980     18982     18980     18993     18980     18994
     18982     18984     18982     18986     18986     18995     18984     18996
     18997     18984     18998     18984     18999     18986     19000     18986
     19001     19002     19003     19004     19005     19006     19007     19008
     19009     19010     19011     19012     19001     19003     19001     19013
     19001     19014     19001     19015     19003     19005     19003     19016
     19003     19017     19005     19007     19005     19018     19005     19019
     19007     19009     19007     19011     19011     19020     19009     19021
     19022     19009     19023     19009     19024     19011     19025     19011
     19026     19027     19028     19029     19030     19031     19032     19033
     19034     19035     19036     19037     19026     19028     19026     19038
     19026     19039     19026     19040     19028     19030     19028     19041
     19028     19042     19030     19032     19030     19043     19030     19044
     19032     19034     19032     19036     19036     19045     19034     19046
     19047     19034     19048     19034     19049     19036     19050     19036
     19051     19052     19053     19054     19055     19056     19057     19058
     19059     19060     19061     19062     19051     19053     19051     19063
     19051     19064     19051     19065     19053     19055     19053     19066
     19053     19067     19055     19057     19055     19068     19055     19069
     19057     19059     19057     19061     19061     19070     19059     19071
     19072     19059     19073     19059     19074     19061     19075     19061
     19076     19077     19078     19079     19080     19081     19082     19083
     19084     19085     19086     19087     19076     19078     19076     19088
     19076     19089     19076     19090     19078     19080     19078     19091
     19078     19092     19080     19082     19080     19093     19080     19094
     19082     19084     19082     19086     19086     19095     19084     19096
     19097     19084     19098     19084     19099     19086     19100     19086
     19101     19102     19103     19104     19105     19106     19107     19108
     19109     19110     19111     19112     19101     19103     19101     19113
     19101     19114     19101     19115     19103     19105     19103     19116
     19103     19117     19105     19107     19105     19118     19105     19119
     19107     19109     19107     19111     19111     19120     19109     19121
     19122     19109     19123     19109     19124     19111     19125     19111
     19126     19127     19128     19129     19130     19131     19132     19133
     19134     19135     19136     19137     19126     19128     19126     19138
     19126     19139     19126     19140     19128     19130     19128     19141
     19128     19142     19130     19132     19130     19143     19130     19144
     19132     19134     19132     19136     19136     19145     19134     19146
     19147     19134     19148     19134     19149     19136     19150     19136
     19151     19152     19153     19154     19155     19156     19157     19158
     19159     19160     19161     19162     19151     19153     19151     19163
     19151     19164     19151     19165     19153     19155     19153     19166
     19153     19167     19155     19157     19155     19168     19155     19169
     19157     19159     19157     19161     19161     19170     19159     19171
     19172     19159     19173     19159     19174     19161     19175     19161
     19176     19177     19178     19179     19180     19181     19182     19183
     19184     19185     19186     19187     19176     19178     19176     19188
     19176     19189     19176     19190     19178     19180     19178     19191
     19178     19192     19180     19182     19180     19193     19180     19194
     19182     19184     19182     19186     19186     19195     19184     19196
     19197     19184     19198     19184     19199     19186     19200     19186
     19201     19202     19203     19204     19205     19206     19207     19208
     19209     19210     19211     19212     19201     19203     19201     19213
     19201     19214     19201     19215     19203     19205     19203     19216
     19203     19217     19205     19207     19205     19218     19205     19219
     19207     19209     19207     19211     19211     19220     19209     19221
     19222     19209     19223     19209     19224     19211     19225     19211
     19226     19227     19228     19229     19230     19231     19232     19233
     19234     19235     19236     19237     19226     19228     19226     19238
     19226     19239     19226     19240     19228     19230     19228     19241
     19228     19242     19230     19232     19230     19243     19230     19244
     19232     19234     19232     19236     19236     19245     19234     19246
     19247     19234     19248     19234     19249     19236     19250     19236
     19251     19252     19253     19254     19255     19256     19257     19258
     19259     19260     19261     19262     19251     19253     19251     19263
     19251     19264     19251     19265     19253     19255     19253     19266
     19253     19267     19255     19257     19255     19268     19255     19269
     19257     19259     19257     19261     19261     19270     19259     19271
     19272     19259     19273     19259     19274     19261     19275     19261
     19276     19277     19278     19279     19280     19281     19282     19283
     19284     19285     19286     19287     19276     19278     19276     19288
     19276     19289     19276     19290     19278     19280     19278     19291
     19278     19292     19280     19282     19280     19293     19280     19294
     19282     19284     19282     19286     19286     19295     19284     19296
     19297     19284     19298     19284     19299     19286     19300     19286
     19301     19302     19303     19304     19305     19306     19307     19308
     19309     19310     19311     19312     19301     19303     19301     19313
     19301     19314     19301     19315     19303     19305     19303     19316
     19303     19317     19305     19307     19305     19318     19305     19319
     19307     19309     19307     19311     19311     19320     19309     19321
     19322     19309     19323     19309     19324     19311     19325     19311
     19326     19327     19328     19329     19330     19331     19332     19333
     19334     19335     19336     19337     19326     19328     19326     19338
     19326     19339     19326     19340     19328     19330     19328     19341
     19328     19342     19330     19332     19330     19343     19330     19344
     19332     19334     19332     19336     19336     19345     19334     19346
     19347     19334     19348     19334     19349     19336     19350     19336
     19351     19352     19353     19354     19355     19356     19357     19358
     19359     19360     19361     19362     19351     19353     19351     19363
     19351     19364     19351     19365     19353     19355     19353     19366
     19353     19367     19355     19357     19355     19368     19355     19369
     19357     19359     19357     19361     19361     19370     19359     19371
     19372     19359     19373     19359     19374     19361     19375     19361
     19376     19377     19378     19379     19380     19381     19382     19383
     19384     19385     19386     19387     19376     19378     19376     19388
     19376     19389     19376     19390     19378     19380     19378     19391
     19378     19392     19380     19382     19380     19393     19380     19394
     19382     19384     19382     19386     19386     19395     19384     19396
     19397     19384     19398     19384     19399     19386     19400     19386
     19401     19402     19403     19404     19405     19406     19407     19408
     19409     19410     19411     19412     19401     19403     19401     19413
     19401     19414     19401     19415     19403     19405     19403     19416
     19403     19417     19405     19407     19405     19418     19405     19419
     19407     19409     19407     19411     19411     19420     19409     19421
     19422     19409     19423     19409     19424     19411     19425     19411
     19426     19427     19428     19429     19430     19431     19432     19433
     19434     19435     19436     19437     19426     19428     19426     19438
     19426     19439     19426     19440     19428     19430     19428     19441
     19428     19442     19430     19432     19430     19443     19430     19444
     19432     19434     19432     19436     19436     19445     19434     19446
     19447     19434     19448     19434     19449     19436     19450     19436
     19451     19452     19453     19454     19455     19456     19457     19458
     19459     19460     19461     19462     19451     19453     19451     19463
     19451     19464     19451     19465     19453     19455     19453     19466
     19453     19467     19455     19457     19455     19468     19455     19469
     19457     19459     19457     19461     19461     19470     19459     19471
     19472     19459     19473     19459     19474     19461     19475     19461
     19476     19477     19478     19479     19480     19481     19482     19483
     19484     19485     19486     19487     19476     19478     19476     19488
     19476     19489     19476     19490     19478     19480     19478     19491
     19478     19492     19480     19482     19480     19493     19480     19494
     19482     19484     19482     19486     19486     19495     19484     19496
     19497     19484     19498     19484     19499     19486     19500     19486
     19501     19502     19503     19504     19505     19506     19507     19508
     19509     19510     19511     19512     19501     19503     19501     19513
     19501     19514     19501     19515     19503     19505     19503     19516
     19503     19517     19505     19507     19505     19518     19505     19519
     19507     19509     19507     19511     19511     19520     19509     19521
     19522     19509     19523     19509     19524     19511     19525     19511
     19526     19527     19528     19529     19530     19531     19532     19533
     19534     19535     19536     19537     19526     19528     19526     19538
     19526     19539     19526     19540     19528     19530     19528     19541
     19528     19542     19530     19532     19530     19543     19530     19544
     19532     19534     19532     19536     19536     19545     19534     19546
     19547     19534     19548     19534     19549     19536     19550     19536
     19551     19552     19553     19554     19555     19556     19557     19558
     19559     19560     19561     19562     19551     19553     19551     19563
     19551     19564     19551     19565     19553     19555     19553     19566
     19553     19567     19555     19557     19555     19568     19555     19569
     19557     19559     19557     19561     19561     19570     19559     19571
     19572     19559     19573     19559     19574     19561     19575     19561
     19576     19577     19578     19579     19580     19581     19582     19583
     19584     19585     19586     19587     19576     19578     19576     19588
     19576     19589     19576     19590     19578     19580     19578     19591
     19578     19592     19580     19582     19580     19593     19580     19594
     19582     19584     19582     19586     19586     19595     19584     19596
     19597     19584     19598     19584     19599     19586     19600     19586
     19601     19602     19603     19604     19605     19606     19607     19608
     19609     19610     19611     19612     19601     19603     19601     19613
     19601     19614     19601     19615     19603     19605     19603     19616
     19603     19617     19605     19607     19605     19618     19605     19619
     19607     19609     19607     19611     19611     19620     19609     19621
     19622     19609     19623     19609     19624     19611     19625     19611
     19626     19627     19628     19629     19630     19631     19632     19633
     19634     19635     19636     19637     19626     19628     19626     19638
     19626     19639     19626     19640     19628     19630     19628     19641
     19628     19642     19630     19632     19630     19643     19630     19644
     19632     19634     19632     19636     19636     19645     19634     19646
     19647     19634     19648     19634     19649     19636     19650     19636
     19651     19652     19653     19654     19655     19656     19657     19658
     19659     19660     19661     19662     19651     19653     19651     19663
     19651     19664     19651     19665     19653     19655     19653     19666
     19653     19667     19655     19657     19655     19668     19655     19669
     19657     19659     19657     19661     19661     19670     19659     19671
     19672     19659     19673     19659     19674     19661     19675     19661
     19676     19677     19678     19679     19680     19681     19682     19683
     19684     19685     19686     19687     19676     19678     19676     19688
     19676     19689     19676     19690     19678     19680     19678     19691
     19678     19692     19680     19682     19680     19693     19680     19694
     19682     19684     19682     19686     19686     19695     19684     19696
     19697     19684     19698     19684     19699     19686     19700     19686
     19701     19702     19703     19704     19705     19706     19707     19708
     19709     19710     19711     19712     19701     19703     19701     19713
     19701     19714     19701     19715     19703     19705     19703     19716
     19703     19717     19705     19707     19705     19718     19705     19719
     19707     19709     19707     19711     19711     19720     19709     19721
     19722     19709     19723     19709     19724     19711     19725     19711
     19726     19727     19728     19729     19730     19731     19732     19733
     19734     19735     19736     19737     19726     19728     19726     19738
     19726     19739     19726     19740     19728     19730     19728     19741
     19728     19742     19730     19732     19730     19743     19730     19744
     19732     19734     19732     19736     19736     19745     19734     19746
     19747     19734     19748     19734     19749     19736     19750     19736
     19751     19752     19753     19754     19755     19756     19757     19758
     19759     19760     19761     19762     19751     19753     19751     19763
     19751     19764     19751     19765     19753     19755     19753     19766
     19753     19767     19755     19757     19755     19768     19755     19769
     19757     19759     19757     19761     19761     19770     19759     19771
     19772     19759     19773     19759     19774     19761     19775     19761
     19776     19777     19778     19779     19780     19781     19782     19783
     19784     19785     19786     19787     19776     19778     19776     19788
     19776     19789     19776     19790     19778     19780     19778     19791
     19778     19792     19780     19782     19780     19793     19780     19794
     19782     19784     19782     19786     19786     19795     19784     19796
     19797     19784     19798     19784     19799     19786     19800     19786
     19801     19802     19803     19804     19805     19806     19807     19808
     19809     19810     19811     19812     19801     19803     19801     19813
     19801     19814     19801     19815     19803     19805     19803     19816
     19803     19817     19805     19807     19805     19818     19805     19819
     19807     19809     19807     19811     19811     19820     19809     19821
     19822     19809     19823     19809     19824     19811     19825     19811
     19826     19827     19828     19829     19830     19831     19832     19833
     19834     19835     19836     19837     19826     19828     19826     19838
     19826     19839     19826     19840     19828     19830     19828     19841
     19828     19842     19830     19832     19830     19843     19830     19844
     19832     19834     19832     19836     19836     19845     19834     19846
     19847     19834     19848     19834     19849     19836     19850     19836
     19851     19852     19853     19854     19855     19856     19857     19858
     19859     19860     19861     19862     19851     19853     19851     19863
     19851     19864     19851     19865     19853     19855     19853     19866
     19853     19867     19855     19857     19855     19868     19855     19869
     19857     19859     19857     19861     19861     19870     19859     19871
     19872     19859     19873     19859     19874     19861     19875     19861
     19876     19877     19878     19879     19880     19881     19882     19883
     19884     19885     19886     19887     19876     19878     19876     19888
     19876     19889     19876     19890     19878     19880     19878     19891
     19878     19892     19880     19882     19880     19893     19880     19894
     19882     19884     19882     19886     19886     19895     19884     19896
     19897     19884     19898     19884     19899     19886     19900     19886
     19901     19902     19903     19904     19905     19906     19907     19908
     19909     19910     19911     19912     19901     19903     19901     19913
     19901     19914     19901     19915     19903     19905     19903     19916
     19903     19917     19905     19907     19905     19918     19905     19919
     19907     19909     19907     19911     19911     19920     19909     19921
     19922     19909     19923     19909     19924     19911     19925     19911
     19926     19927     19928     19929     19930     19931     19932     19933
     19934     19935     19936     19937     19926     19928     19926     19938
     19926     19939     19926     19940     19928     19930     19928     19941
     19928     19942     19930     19932     19930     19943     19930     19944
     19932     19934     19932     19936     19936     19945     19934     19946
     19947     19934     19948     19934     19949     19936     19950     19936
     19951     19952     19953     19954     19955     19956     19957     19958
     19959     19960     19961     19962     19951     19953     19951     19963
     19951     19964     19951     19965     19953     19955     19953     19966
     19953     19967     19955     19957     19955     19968     19955     19969
     19957     19959     19957     19961     19961     19970     19959     19971
     19972     19959     19973     19959     19974     19961     19975     19961
     19976     19977     19978     19979     19980     19981     19982     19983
     19984     19985     19986     19987     19976     19978     19976     19988
     19976     19989     19976     19990     19978     19980     19978     19991
     19978     19992     19980     19982     19980     19993     19980     19994
     19982     19984     19982     19986     19986     19995     19984     19996
     19997     19984     19998     19984     19999     19986     20000     19986
     20001     20002     20003     20004     20005     20006     20007     20008
     20009     20010     20011     20012     20001     20003     20001     20013
     20001     20014     20001     20015     20003     20005     20003     20016
     20003     20017     20005     20007     20005     20018     20005     20019
     20007     20009     20007     20011     20011     20020     20009     20021
     20022     20009     20023     20009     20024     20011     20025     20011
     20026     20027     20028     20029     20030     20031     20032     20033
     20034     20035     20036     20037     20026     20028     20026     20038
     20026     20039     20026     20040     20028     20030     20028     20041
     20028     20042     20030     20032     20030     20043     20030     20044
     20032     20034     20032     20036     20036     20045     20034     20046
     20047     20034     20048     20034     20049     20036     20050     20036
     20051     20052     20053     20054     20055     20056     20057     20058
     20059     20060     20061     20062     20051     20053     20051     20063
     20051     20064     20051     20065     20053     20055     20053     20066
     20053     20067     20055     20057     20055     20068     20055     20069
     20057     20059     20057     20061     20061     20070     20059     20071
     20072     20059     20073     20059     20074     20061     20075     20061
     20076     20077     20078     20079     20080     20081     20082     20083
     20084     20085     20086     20087     20076     20078     20076     20088
     20076     20089     20076     20090     20078     20080     20078     20091
     20078     20092     20080     20082     20080     20093     20080     20094
     20082     20084     20082     20086     20086     20095     20084     20096
     20097     20084     20098     20084     20099     20086     20100     20086
     20101     20102     20103     20104     20105     20106     20107     20108
     20109     20110     20111     20112     20101     20103     20101     20113
     20101     20114     20101     20115     20103     20105     20103     20116
     20103     20117     20105     20107     20105     20118     20105     20119
     20107     20109     20107     20111     20111     20120     20109     20121
     20122     20109     20123     20109     20124     20111     20125     20111
     20126     20127     20128     20129     20130     20131     20132     20133
     20134     20135     20136     20137     20126     20128     20126     20138
     20126     20139     20126     20140     20128     20130     20128     20141
     20128     20142     20130     20132     20130     20143     20130     20144
     20132     20134     20132     20136     20136     20145     20134     20146
     20147     20134     20148     20134     20149     20136     20150     20136
     20151     20152     20153     20154     20155     20156     20157     20158
     20159     20160     20161     20162     20151     20153     20151     20163
     20151     20164     20151     20165     20153     20155     20153     20166
     20153     20167     20155     20157     20155     20168     20155     20169
     20157     20159     20157     20161     20161     20170     20159     20171
     20172     20159     20173     20159     20174     20161     20175     20161
     20176     20177     20178     20179     20180     20181     20182     20183
     20184     20185     20186     20187     20176     20178     20176     20188
     20176     20189     20176     20190     20178     20180     20178     20191
     20178     20192     20180     20182     20180     20193     20180     20194
     20182     20184     20182     20186     20186     20195     20184     20196
     20197     20184     20198     20184     20199     20186     20200     20186
     20201     20202     20203     20204     20205     20206     20207     20208
     20209     20210     20211     20212     20201     20203     20201     20213
     20201     20214     20201     20215     20203     20205     20203     20216
     20203     20217     20205     20207     20205     20218     20205     20219
     20207     20209     20207     20211     20211     20220     20209     20221
     20222     20209     20223     20209     20224     20211     20225     20211
     20226     20227     20228     20229     20230     20231     20232     20233
     20234     20235     20236     20237     20226     20228     20226     20238
     20226     20239     20226     20240     20228     20230     20228     20241
     20228     20242     20230     20232     20230     20243     20230     20244
     20232     20234     20232     20236     20236     20245     20234     20246
     20247     20234     20248     20234     20249     20236     20250     20236
     20251     20252     20253     20254     20255     20256     20257     20258
     20259     20260     20261     20262     20251     20253     20251     20263
     20251     20264     20251     20265     20253     20255     20253     20266
     20253     20267     20255     20257     20255     20268     20255     20269
     20257     20259     20257     20261     20261     20270     20259     20271
     20272     20259     20273     20259     20274     20261     20275     20261
     20276     20277     20278     20279     20280     20281     20282     20283
     20284     20285     20286     20287     20276     20278     20276     20288
     20276     20289     20276     20290     20278     20280     20278     20291
     20278     20292     20280     20282     20280     20293     20280     20294
     20282     20284     20282     20286     20286     20295     20284     20296
     20297     20284     20298     20284     20299     20286     20300     20286
     20301     20302     20303     20304     20305     20306     20307     20308
     20309     20310     20311     20312     20301     20303     20301     20313
     20301     20314     20301     20315     20303     20305     20303     20316
     20303     20317     20305     20307     20305     20318     20305     20319
     20307     20309     20307     20311     20311     20320     20309     20321
     20322     20309     20323     20309     20324     20311     20325     20311
     20326     20327     20328     20329     20330     20331     20332     20333
     20334     20335     20336     20337     20326     20328     20326     20338
     20326     20339     20326     20340     20328     20330     20328     20341
     20328     20342     20330     20332     20330     20343     20330     20344
     20332     20334     20332     20336     20336     20345     20334     20346
     20347     20334     20348     20334     20349     20336     20350     20336
     20351     20352     20353     20354     20355     20356     20357     20358
     20359     20360     20361     20362     20351     20353     20351     20363
     20351     20364     20351     20365     20353     20355     20353     20366
     20353     20367     20355     20357     20355     20368     20355     20369
     20357     20359     20357     20361     20361     20370     20359     20371
     20372     20359     20373     20359     20374     20361     20375     20361
     20376     20377     20378     20379     20380     20381     20382     20383
     20384     20385     20386     20387     20376     20378     20376     20388
     20376     20389     20376     20390     20378     20380     20378     20391
     20378     20392     20380     20382     20380     20393     20380     20394
     20382     20384     20382     20386     20386     20395     20384     20396
     20397     20384     20398     20384     20399     20386     20400     20386
     20401     20402     20403     20404     20405     20406     20407     20408
     20409     20410     20411     20412     20401     20403     20401     20413
     20401     20414     20401     20415     20403     20405     20403     20416
     20403     20417     20405     20407     20405     20418     20405     20419
     20407     20409     20407     20411     20411     20420     20409     20421
     20422     20409     20423     20409     20424     20411     20425     20411
     20426     20427     20428     20429     20430     20431     20432     20433
     20434     20435     20436     20437     20426     20428     20426     20438
     20426     20439     20426     20440     20428     20430     20428     20441
     20428     20442     20430     20432     20430     20443     20430     20444
     20432     20434     20432     20436     20436     20445     20434     20446
     20447     20434     20448     20434     20449     20436     20450     20436
     20451     20452     20453     20454     20455     20456     20457     20458
     20459     20460     20461     20462     20451     20453     20451     20463
     20451     20464     20451     20465     20453     20455     20453     20466
     20453     20467     20455     20457     20455     20468     20455     20469
     20457     20459     20457     20461     20461     20470     20459     20471
     20472     20459     20473     20459     20474     20461     20475     20461
     20476     20477     20478     20479     20480     20481     20482     20483
     20484     20485     20486     20487     20476     20478     20476     20488
     20476     20489     20476     20490     20478     20480     20478     20491
     20478     20492     20480     20482     20480     20493     20480     20494
     20482     20484     20482     20486     20486     20495     20484     20496
     20497     20484     20498     20484     20499     20486     20500     20486
     20501     20502     20503     20504     20505     20506     20507     20508
     20509     20510     20511     20512     20501     20503     20501     20513
     20501     20514     20501     20515     20503     20505     20503     20516
     20503     20517     20505     20507     20505     20518     20505     20519
     20507     20509     20507     20511     20511     20520     20509     20521
     20522     20509     20523     20509     20524     20511     20525     20511
     20526     20527     20528     20529     20530     20531     20532     20533
     20534     20535     20536     20537     20526     20528     20526     20538
     20526     20539     20526     20540     20528     20530     20528     20541
     20528     20542     20530     20532     20530     20543     20530     20544
     20532     20534     20532     20536     20536     20545     20534     20546
     20547     20534     20548     20534     20549     20536     20550     20536
     20551     20552     20553     20554     20555     20556     20557     20558
     20559     20560     20561     20562     20551     20553     20551     20563
     20551     20564     20551     20565     20553     20555     20553     20566
     20553     20567     20555     20557     20555     20568     20555     20569
     20557     20559     20557     20561     20561     20570     20559     20571
     20572     20559     20573     20559     20574     20561     20575     20561
     20576     20577     20578     20579     20580     20581     20582     20583
     20584     20585     20586     20587     20576     20578     20576     20588
     20576     20589     20576     20590     20578     20580     20578     20591
     20578     20592     20580     20582     20580     20593     20580     20594
     20582     20584     20582     20586     20586     20595     20584     20596
     20597     20584     20598     20584     20599     20586     20600     20586
     20601     20602     20603     20604     20605     20606     20607     20608
     20609     20610     20611     20612     20601     20603     20601     20613
     20601     20614     20601     20615     20603     20605     20603     20616
     20603     20617     20605     20607     20605     20618     20605     20619
     20607     20609     20607     20611     20611     20620     20609     20621
     20622     20609     20623     20609     20624     20611     20625     20611
     20626     20627     20628     20629     20630     20631     20632     20633
     20634     20635     20636     20637     20626     20628     20626     20638
     20626     20639     20626     20640     20628     20630     20628     20641
     20628     20642     20630     20632     20630     20643     20630     20644
     20632     20634     20632     20636     20636     20645     20634     20646
     20647     20634     20648     20634     20649     20636     20650     20636
     20651     20652     20653     20654     20655     20656     20657     20658
     20659     20660     20661     20662     20651     20653     20651     20663
     20651     20664     20651     20665     20653     20655     20653     20666
     20653     20667     20655     20657     20655     20668     20655     20669
     20657     20659     20657     20661     20661     20670     20659     20671
     20672     20659     20673     20659     20674     20661     20675     20661
     20676     20677     20678     20679     20680     20681     20682     20683
     20684     20685     20686     20687     20676     20678     20676     20688
     20676     20689     20676     20690     20678     20680     20678     20691
     20678     20692     20680     20682     20680     20693     20680     20694
     20682     20684     20682     20686     20686     20695     20684     20696
     20697     20684     20698     20684     20699     20686     20700     20686
     20701     20702     20703     20704     20705     20706     20707     20708
     20709     20710     20711     20712     20701     20703     20701     20713
     20701     20714     20701     20715     20703     20705     20703     20716
     20703     20717     20705     20707     20705     20718     20705     20719
     20707     20709     20707     20711     20711     20720     20709     20721
     20722     20709     20723     20709     20724     20711     20725     20711
     20726     20727     20728     20729     20730     20731     20732     20733
     20734     20735     20736     20737     20726     20728     20726     20738
     20726     20739     20726     20740     20728     20730     20728     20741
     20728     20742     20730     20732     20730     20743     20730     20744
     20732     20734     20732     20736     20736     20745     20734     20746
     20747     20734     20748     20734     20749     20736     20750     20736
     20751     20752     20753     20754     20755     20756     20757     20758
     20759     20760     20761     20762     20751     20753     20751     20763
     20751     20764     20751     20765     20753     20755     20753     20766
     20753     20767     20755     20757     20755     20768     20755     20769
     20757     20759     20757     20761     20761     20770     20759     20771
     20772     20759     20773     20759     20774     20761     20775     20761
     20776     20777     20778     20779     20780     20781     20782     20783
     20784     20785     20786     20787     20776     20778     20776     20788
     20776     20789     20776     20790     20778     20780     20778     20791
     20778     20792     20780     20782     20780     20793     20780     20794
     20782     20784     20782     20786     20786     20795     20784     20796
     20797     20784     20798     20784     20799     20786     20800     20786
     20801     20802     20803     20804     20805     20806     20807     20808
     20809     20810     20811     20812     20801     20803     20801     20813
     20801     20814     20801     20815     20803     20805     20803     20816
     20803     20817     20805     20807     20805     20818     20805     20819
     20807     20809     20807     20811     20811     20820     20809     20821
     20822     20809     20823     20809     20824     20811     20825     20811
     20826     20827     20828     20829     20830     20831     20832     20833
     20834     20835     20836     20837     20826     20828     20826     20838
     20826     20839     20826     20840     20828     20830     20828     20841
     20828     20842     20830     20832     20830     20843     20830     20844
     20832     20834     20832     20836     20836     20845     20834     20846
     20847     20834     20848     20834     20849     20836     20850     20836
     20851     20852     20853     20854     20855     20856     20857     20858
     20859     20860     20861     20862     20851     20853     20851     20863
     20851     20864     20851     20865     20853     20855     20853     20866
     20853     20867     20855     20857     20855     20868     20855     20869
     20857     20859     20857     20861     20861     20870     20859     20871
     20872     20859     20873     20859     20874     20861     20875     20861
     20876     20877     20878     20879     20880     20881     20882     20883
     20884     20885     20886     20887     20876     20878     20876     20888
     20876     20889     20876     20890     20878     20880     20878     20891
     20878     20892     20880     20882     20880     20893     20880     20894
     20882     20884     20882     20886     20886     20895     20884     20896
     20897     20884     20898     20884     20899     20886     20900     20886
     20901     20902     20903     20904     20905     20906     20907     20908
     20909     20910     20911     20912     20901     20903     20901     20913
     20901     20914     20901     20915     20903     20905     20903     20916
     20903     20917     20905     20907     20905     20918     20905     20919
     20907     20909     20907     20911     20911     20920     20909     20921
     20922     20909     20923     20909     20924     20911     20925     20911
     20926     20927     20928     20929     20930     20931     20932     20933
     20934     20935     20936     20937     20926     20928     20926     20938
     20926     20939     20926     20940     20928     20930     20928     20941
     20928     20942     20930     20932     20930     20943     20930     20944
     20932     20934     20932     20936     20936     20945     20934     20946
     20947     20934     20948     20934     20949     20936     20950     20936
     20951     20952     20953     20954     20955     20956     20957     20958
     20959     20960     20961     20962     20951     20953     20951     20963
     20951     20964     20951     20965     20953     20955     20953     20966
     20953     20967     20955     20957     20955     20968     20955     20969
     20957     20959     20957     20961     20961     20970     20959     20971
     20972     20959     20973     20959     20974     20961     20975     20961
     20976     20977     20978     20979     20980     20981     20982     20983
     20984     20985     20986     20987     20976     20978     20976     20988
     20976     20989     20976     20990     20978     20980     20978     20991
     20978     20992     20980     20982     20980     20993     20980     20994
     20982     20984     20982     20986     20986     20995     20984     20996
     20997     20984     20998     20984     20999     20986     21000     20986
     21001     21002     21003     21004     21005     21006     21007     21008
     21009     21010     21011     21012     21001     21003     21001     21013
     21001     21014     21001     21015     21003     21005     21003     21016
     21003     21017     21005     21007     21005     21018     21005     21019
     21007     21009     21007     21011     21011     21020     21009     21021
     21022     21009     21023     21009     21024     21011     21025     21011
     21026     21027     21028     21029     21030     21031     21032     21033
     21034     21035     21036     21037     21026     21028     21026     21038
     21026     21039     21026     21040     21028     21030     21028     21041
     21028     21042     21030     21032     21030     21043     21030     21044
     21032     21034     21032     21036     21036     21045     21034     21046
     21047     21034     21048     21034     21049     21036     21050     21036
     21051     21052     21053     21054     21055     21056     21057     21058
     21059     21060     21061     21062     21051     21053     21051     21063
     21051     21064     21051     21065     21053     21055     21053     21066
     21053     21067     21055     21057     21055     21068     21055     21069
     21057     21059     21057     21061     21061     21070     21059     21071
     21072     21059     21073     21059     21074     21061     21075     21061
     21076     21077     21078     21079     21080     21081     21082     21083
     21084     21085     21086     21087     21076     21078     21076     21088
     21076     21089     21076     21090     21078     21080     21078     21091
     21078     21092     21080     21082     21080     21093     21080     21094
     21082     21084     21082     21086     21086     21095     21084     21096
     21097     21084     21098     21084     21099     21086     21100     21086
     21101     21102     21103     21104     21105     21106     21107     21108
     21109     21110     21111     21112     21101     21103     21101     21113
     21101     21114     21101     21115     21103     21105     21103     21116
     21103     21117     21105     21107     21105     21118     21105     21119
     21107     21109     21107     21111     21111     21120     21109     21121
     21122     21109     21123     21109     21124     21111     21125     21111
     21126     21127     21128     21129     21130     21131     21132     21133
     21134     21135     21136     21137     21126     21128     21126     21138
     21126     21139     21126     21140     21128     21130     21128     21141
     21128     21142     21130     21132     21130     21143     21130     21144
     21132     21134     21132     21136     21136     21145     21134     21146
     21147     21134     21148     21134     21149     21136     21150     21136
     21151     21152     21153     21154     21155     21156     21157     21158
     21159     21160     21161     21162     21151     21153     21151     21163
     21151     21164     21151     21165     21153     21155     21153     21166
     21153     21167     21155     21157     21155     21168     21155     21169
     21157     21159     21157     21161     21161     21170     21159     21171
     21172     21159     21173     21159     21174     21161     21175     21161
     21176     21177     21178     21179     21180     21181     21182     21183
     21184     21185     21186     21187     21176     21178     21176     21188
     21176     21189     21176     21190     21178     21180     21178     21191
     21178     21192     21180     21182     21180     21193     21180     21194
     21182     21184     21182     21186     21186     21195     21184     21196
     21197     21184     21198     21184     21199     21186     21200     21186
     21201     21202     21203     21204     21205     21206     21207     21208
     21209     21210     21211     21212     21201     21203     21201     21213
     21201     21214     21201     21215     21203     21205     21203     21216
     21203     21217     21205     21207     21205     21218     21205     21219
     21207     21209     21207     21211     21211     21220     21209     21221
     21222     21209     21223     21209     21224     21211     21225     21211
     21226     21227     21228     21229     21230     21231     21232     21233
     21234     21235     21236     21237     21226     21228     21226     21238
     21226     21239     21226     21240     21228     21230     21228     21241
     21228     21242     21230     21232     21230     21243     21230     21244
     21232     21234     21232     21236     21236     21245     21234     21246
     21247     21234     21248     21234     21249     21236     21250     21236
     21251     21252     21253     21254     21255     21256     21257     21258
     21259     21260     21261     21262     21251     21253     21251     21263
     21251     21264     21251     21265     21253     21255     21253     21266
     21253     21267     21255     21257     21255     21268     21255     21269
     21257     21259     21257     21261     21261     21270     21259     21271
     21272     21259     21273     21259     21274     21261     21275     21261
     21276     21277     21278     21279     21280     21281     21282     21283
     21284     21285     21286     21287     21276     21278     21276     21288
     21276     21289     21276     21290     21278     21280     21278     21291
     21278     21292     21280     21282     21280     21293     21280     21294
     21282     21284     21282     21286     21286     21295     21284     21296
     21297     21284     21298     21284     21299     21286     21300     21286
     21301     21302     21303     21304     21305     21306     21307     21308
     21309     21310     21311     21312     21301     21303     21301     21313
     21301     21314     21301     21315     21303     21305     21303     21316
     21303     21317     21305     21307     21305     21318     21305     21319
     21307     21309     21307     21311     21311     21320     21309     21321
     21322     21309     21323     21309     21324     21311     21325     21311
     21326     21327     21328     21329     21330     21331     21332     21333
     21334     21335     21336     21337     21326     21328     21326     21338
     21326     21339     21326     21340     21328     21330     21328     21341
     21328     21342     21330     21332     21330     21343     21330     21344
     21332     21334     21332     21336     21336     21345     21334     21346
     21347     21334     21348     21334     21349     21336     21350     21336
     21351     21352     21353     21354     21355     21356     21357     21358
     21359     21360     21361     21362     21351     21353     21351     21363
     21351     21364     21351     21365     21353     21355     21353     21366
     21353     21367     21355     21357     21355     21368     21355     21369
     21357     21359     21357     21361     21361     21370     21359     21371
     21372     21359     21373     21359     21374     21361     21375     21361
     21376     21377     21378     21379     21380     21381     21382     21383
     21384     21385     21386     21387     21376     21378     21376     21388
     21376     21389     21376     21390     21378     21380     21378     21391
     21378     21392     21380     21382     21380     21393     21380     21394
     21382     21384     21382     21386     21386     21395     21384     21396
     21397     21384     21398     21384     21399     21386     21400     21386
     21401     21402     21403     21404     21405     21406     21407     21408
     21409     21410     21411     21412     21401     21403     21401     21413
     21401     21414     21401     21415     21403     21405     21403     21416
     21403     21417     21405     21407     21405     21418     21405     21419
     21407     21409     21407     21411     21411     21420     21409     21421
     21422     21409     21423     21409     21424     21411     21425     21411
     21426     21427     21428     21429     21430     21431     21432     21433
     21434     21435     21436     21437     21426     21428     21426     21438
     21426     21439     21426     21440     21428     21430     21428     21441
     21428     21442     21430     21432     21430     21443     21430     21444
     21432     21434     21432     21436     21436     21445     21434     21446
     21447     21434     21448     21434     21449     21436     21450     21436
     21451     21452     21453     21454     21455     21456     21457     21458
     21459     21460     21461     21462     21451     21453     21451     21463
     21451     21464     21451     21465     21453     21455     21453     21466
     21453     21467     21455     21457     21455     21468     21455     21469
     21457     21459     21457     21461     21461     21470     21459     21471
     21472     21459     21473     21459     21474     21461     21475     21461
     21476     21477     21478     21479     21480     21481     21482     21483
     21484     21485     21486     21487     21476     21478     21476     21488
     21476     21489     21476     21490     21478     21480     21478     21491
     21478     21492     21480     21482     21480     21493     21480     21494
     21482     21484     21482     21486     21486     21495     21484     21496
     21497     21484     21498     21484     21499     21486     21500     21486
     21501     21502     21503     21504     21505     21506     21507     21508
     21509     21510     21511     21512     21501     21503     21501     21513
     21501     21514     21501     21515     21503     21505     21503     21516
     21503     21517     21505     21507     21505     21518     21505     21519
     21507     21509     21507     21511     21511     21520     21509     21521
     21522     21509     21523     21509     21524     21511     21525     21511
     21526     21527     21528     21529     21530     21531     21532     21533
     21534     21535     21536     21537     21526     21528     21526     21538
     21526     21539     21526     21540     21528     21530     21528     21541
     21528     21542     21530     21532     21530     21543     21530     21544
     21532     21534     21532     21536     21536     21545     21534     21546
     21547     21534     21548     21534     21549     21536     21550     21536
     21551     21552     21553     21554     21555     21556     21557     21558
     21559     21560     21561     21562     21551     21553     21551     21563
     21551     21564     21551     21565     21553     21555     21553     21566
     21553     21567     21555     21557     21555     21568     21555     21569
     21557     21559     21557     21561     21561     21570     21559     21571
     21572     21559     21573     21559     21574     21561     21575     21561
     21576     21577     21578     21579     21580     21581     21582     21583
     21584     21585     21586     21587     21576     21578     21576     21588
     21576     21589     21576     21590     21578     21580     21578     21591
     21578     21592     21580     21582     21580     21593     21580     21594
     21582     21584     21582     21586     21586     21595     21584     21596
     21597     21584     21598     21584     21599     21586     21600     21586
     21601     21602     21603     21604     21605     21606     21607     21608
     21609     21610     21611     21612     21601     21603     21601     21613
     21601     21614     21601     21615     21603     21605     21603     21616
     21603     21617     21605     21607     21605     21618     21605     21619
     21607     21609     21607     21611     21611     21620     21609     21621
     21622     21609     21623     21609     21624     21611     21625     21611
     21626     21627     21628     21629     21630     21631     21632     21633
     21634     21635     21636     21637     21626     21628     21626     21638
     21626     21639     21626     21640     21628     21630     21628     21641
     21628     21642     21630     21632     21630     21643     21630     21644
     21632     21634     21632     21636     21636     21645     21634     21646
     21647     21634     21648     21634     21649     21636     21650     21636
     21651     21652     21653     21654     21655     21656     21657     21658
     21659     21660     21661     21662     21651     21653     21651     21663
     21651     21664     21651     21665     21653     21655     21653     21666
     21653     21667     21655     21657     21655     21668     21655     21669
     21657     21659     21657     21661     21661     21670     21659     21671
     21672     21659     21673     21659     21674     21661     21675     21661
     21676     21677     21678     21679     21680     21681     21682     21683
     21684     21685     21686     21687     21676     21678     21676     21688
     21676     21689     21676     21690     21678     21680     21678     21691
     21678     21692     21680     21682     21680     21693     21680     21694
     21682     21684     21682     21686     21686     21695     21684     21696
     21697     21684     21698     21684     21699     21686     21700     21686
     21701     21702     21703     21704     21705     21706     21707     21708
     21709     21710     21711     21712     21701     21703     21701     21713
     21701     21714     21701     21715     21703     21705     21703     21716
     21703     21717     21705     21707     21705     21718     21705     21719
     21707     21709     21707     21711     21711     21720     21709     21721
     21722     21709     21723     21709     21724     21711     21725     21711
     21726     21727     21728     21729     21730     21731     21732     21733
     21734     21735     21736     21737     21726     21728     21726     21738
     21726     21739     21726     21740     21728     21730     21728     21741
     21728     21742     21730     21732     21730     21743     21730     21744
     21732     21734     21732     21736     21736     21745     21734     21746
     21747     21734     21748     21734     21749     21736     21750     21736
     21751     21752     21753     21754     21755     21756     21757     21758
     21759     21760     21761     21762     21751     21753     21751     21763
     21751     21764     21751     21765     21753     21755     21753     21766
     21753     21767     21755     21757     21755     21768     21755     21769
     21757     21759     21757     21761     21761     21770     21759     21771
     21772     21759     21773     21759     21774     21761     21775     21761
     21776     21777     21778     21779     21780     21781     21782     21783
     21784     21785     21786     21787     21776     21778     21776     21788
     21776     21789     21776     21790     21778     21780     21778     21791
     21778     21792     21780     21782     21780     21793     21780     21794
     21782     21784     21782     21786     21786     21795     21784     21796
     21797     21784     21798     21784     21799     21786     21800     21786
     21801     21802     21803     21804     21805     21806     21807     21808
     21809     21810     21811     21812     21801     21803     21801     21813
     21801     21814     21801     21815     21803     21805     21803     21816
     21803     21817     21805     21807     21805     21818     21805     21819
     21807     21809     21807     21811     21811     21820     21809     21821
     21822     21809     21823     21809     21824     21811     21825     21811
     21826     21827     21828     21829     21830     21831     21832     21833
     21834     21835     21836     21837     21826     21828     21826     21838
     21826     21839     21826     21840     21828     21830     21828     21841
     21828     21842     21830     21832     21830     21843     21830     21844
     21832     21834     21832     21836     21836     21845     21834     21846
     21847     21834     21848     21834     21849     21836     21850     21836
     21851     21852     21853     21854     21855     21856     21857     21858
     21859     21860     21861     21862     21851     21853     21851     21863
     21851     21864     21851     21865     21853     21855     21853     21866
     21853     21867     21855     21857     21855     21868     21855     21869
     21857     21859     21857     21861     21861     21870     21859     21871
     21872     21859     21873     21859     21874     21861     21875     21861
     21876     21877     21878     21879     21880     21881     21882     21883
     21884     21885     21886     21887     21876     21878     21876     21888
     21876     21889     21876     21890     21878     21880     21878     21891
     21878     21892     21880     21882     21880     21893     21880     21894
     21882     21884     21882     21886     21886     21895     21884     21896
     21897     21884     21898     21884     21899     21886     21900     21886
     21901     21902     21903     21904     21905     21906     21907     21908
     21909     21910     21911     21912     21901     21903     21901     21913
     21901     21914     21901     21915     21903     21905     21903     21916
     21903     21917     21905     21907     21905     21918     21905     21919
     21907     21909     21907     21911     21911     21920     21909     21921
     21922     21909     21923     21909     21924     21911     21925     21911
     21926     21927     21928     21929     21930     21931     21932     21933
     21934     21935     21936     21937     21926     21928     21926     21938
     21926     21939     21926     21940     21928     21930     21928     21941
     21928     21942     21930     21932     21930     21943     21930     21944
     21932     21934     21932     21936     21936     21945     21934     21946
     21947     21934     21948     21934     21949     21936     21950     21936
     21951     21952     21953     21954     21955     21956     21957     21958
     21959     21960     21961     21962     21951     21953     21951     21963
     21951     21964     21951     21965     21953     21955     21953     21966
     21953     21967     21955     21957     21955     21968     21955     21969
     21957     21959     21957     21961     21961     21970     21959     21971
     21972     21959     21973     21959     21974     21961     21975     21961
     21976     21977     21978     21979     21980     21981     21982     21983
     21984     21985     21986     21987     21976     21978     21976     21988
     21976     21989     21976     21990     21978     21980     21978     21991
     21978     21992     21980     21982     21980     21993     21980     21994
     21982     21984     21982     21986     21986     21995     21984     21996
     21997     21984     21998     21984     21999     21986     22000     21986
     22001     22002     22003     22004     22005     22006     22007     22008
     22009     22010     22011     22012     22001     22003     22001     22013
     22001     22014     22001     22015     22003     22005     22003     22016
     22003     22017     22005     22007     22005     22018     22005     22019
     22007     22009     22007     22011     22011     22020     22009     22021
     22022     22009     22023     22009     22024     22011     22025     22011
     22026     22027     22028     22029     22030     22031     22032     22033
     22034     22035     22036     22037     22026     22028     22026     22038
     22026     22039     22026     22040     22028     22030     22028     22041
     22028     22042     22030     22032     22030     22043     22030     22044
     22032     22034     22032     22036     22036     22045     22034     22046
     22047     22034     22048     22034     22049     22036     22050     22036
     22051     22052     22053     22054     22055     22056     22057     22058
     22059     22060     22061     22062     22051     22053     22051     22063
     22051     22064     22051     22065     22053     22055     22053     22066
     22053     22067     22055     22057     22055     22068     22055     22069
     22057     22059     22057     22061     22061     22070     22059     22071
     22072     22059     22073     22059     22074     22061     22075     22061
     22076     22077     22078     22079     22080     22081     22082     22083
     22084     22085     22086     22087     22076     22078     22076     22088
     22076     22089     22076     22090     22078     22080     22078     22091
     22078     22092     22080     22082     22080     22093     22080     22094
     22082     22084     22082     22086     22086     22095     22084     22096
     22097     22084     22098     22084     22099     22086     22100     22086
     22101     22102     22103     22104     22105     22106     22107     22108
     22109     22110     22111     22112     22101     22103     22101     22113
     22101     22114     22101     22115     22103     22105     22103     22116
     22103     22117     22105     22107     22105     22118     22105     22119
     22107     22109     22107     22111     22111     22120     22109     22121
     22122     22109     22123     22109     22124     22111     22125     22111
     22126     22127     22128     22129     22130     22131     22132     22133
     22134     22135     22136     22137     22126     22128     22126     22138
     22126     22139     22126     22140     22128     22130     22128     22141
     22128     22142     22130     22132     22130     22143     22130     22144
     22132     22134     22132     22136     22136     22145     22134     22146
     22147     22134     22148     22134     22149     22136     22150     22136
     22151     22152     22153     22154     22155     22156     22157     22158
     22159     22160     22161     22162     22151     22153     22151     22163
     22151     22164     22151     22165     22153     22155     22153     22166
     22153     22167     22155     22157     22155     22168     22155     22169
     22157     22159     22157     22161     22161     22170     22159     22171
     22172     22159     22173     22159     22174     22161     22175     22161
     22176     22177     22178     22179     22180     22181     22182     22183
     22184     22185     22186     22187     22176     22178     22176     22188
     22176     22189     22176     22190     22178     22180     22178     22191
     22178     22192     22180     22182     22180     22193     22180     22194
     22182     22184     22182     22186     22186     22195     22184     22196
     22197     22184     22198     22184     22199     22186     22200     22186
     22201     22202     22203     22204     22205     22206     22207     22208
     22209     22210     22211     22212     22201     22203     22201     22213
     22201     22214     22201     22215     22203     22205     22203     22216
     22203     22217     22205     22207     22205     22218     22205     22219
     22207     22209     22207     22211     22211     22220     22209     22221
     22222     22209     22223     22209     22224     22211     22225     22211
     22226     22227     22228     22229     22230     22231     22232     22233
     22234     22235     22236     22237     22226     22228     22226     22238
     22226     22239     22226     22240     22228     22230     22228     22241
     22228     22242     22230     22232     22230     22243     22230     22244
     22232     22234     22232     22236     22236     22245     22234     22246
     22247     22234     22248     22234     22249     22236     22250     22236
     22251     22252     22253     22254     22255     22256     22257     22258
     22259     22260     22261     22262     22251     22253     22251     22263
     22251     22264     22251     22265     22253     22255     22253     22266
     22253     22267     22255     22257     22255     22268     22255     22269
     22257     22259     22257     22261     22261     22270     22259     22271
     22272     22259     22273     22259     22274     22261     22275     22261
     22276     22277     22278     22279     22280     22281     22282     22283
     22284     22285     22286     22287     22276     22278     22276     22288
     22276     22289     22276     22290     22278     22280     22278     22291
     22278     22292     22280     22282     22280     22293     22280     22294
     22282     22284     22282     22286     22286     22295     22284     22296
     22297     22284     22298     22284     22299     22286     22300     22286
     22301     22302     22303     22304     22305     22306     22307     22308
     22309     22310     22311     22312     22301     22303     22301     22313
     22301     22314     22301     22315     22303     22305     22303     22316
     22303     22317     22305     22307     22305     22318     22305     22319
     22307     22309     22307     22311     22311     22320     22309     22321
     22322     22309     22323     22309     22324     22311     22325     22311
     22326     22327     22328     22329     22330     22331     22332     22333
     22334     22335     22336     22337     22326     22328     22326     22338
     22326     22339     22326     22340     22328     22330     22328     22341
     22328     22342     22330     22332     22330     22343     22330     22344
     22332     22334     22332     22336     22336     22345     22334     22346
     22347     22334     22348     22334     22349     22336     22350     22336
     22351     22352     22353     22354     22355     22356     22357     22358
     22359     22360     22361     22362     22351     22353     22351     22363
     22351     22364     22351     22365     22353     22355     22353     22366
     22353     22367     22355     22357     22355     22368     22355     22369
     22357     22359     22357     22361     22361     22370     22359     22371
     22372     22359     22373     22359     22374     22361     22375     22361
     22376     22377     22378     22379     22380     22381     22382     22383
     22384     22385     22386     22387     22376     22378     22376     22388
     22376     22389     22376     22390     22378     22380     22378     22391
     22378     22392     22380     22382     22380     22393     22380     22394
     22382     22384     22382     22386     22386     22395     22384     22396
     22397     22384     22398     22384     22399     22386     22400     22386
     22401     22402     22403     22404     22405     22406     22407     22408
     22409     22410     22411     22412     22401     22403     22401     22413
     22401     22414     22401     22415     22403     22405     22403     22416
     22403     22417     22405     22407     22405     22418     22405     22419
     22407     22409     22407     22411     22411     22420     22409     22421
     22422     22409     22423     22409     22424     22411     22425     22411
     22426     22427     22428     22429     22430     22431     22432     22433
     22434     22435     22436     22437     22426     22428     22426     22438
     22426     22439     22426     22440     22428     22430     22428     22441
     22428     22442     22430     22432     22430     22443     22430     22444
     22432     22434     22432     22436     22436     22445     22434     22446
     22447     22434     22448     22434     22449     22436     22450     22436
     22451     22452     22453     22454     22455     22456     22457     22458
     22459     22460     22461     22462     22451     22453     22451     22463
     22451     22464     22451     22465     22453     22455     22453     22466
     22453     22467     22455     22457     22455     22468     22455     22469
     22457     22459     22457     22461     22461     22470     22459     22471
     22472     22459     22473     22459     22474     22461     22475     22461
     22476     22477     22478     22479     22480     22481     22482     22483
     22484     22485     22486     22487     22476     22478     22476     22488
     22476     22489     22476     22490     22478     22480     22478     22491
     22478     22492     22480     22482     22480     22493     22480     22494
     22482     22484     22482     22486     22486     22495     22484     22496
     22497     22484     22498     22484     22499     22486     22500     22486

     22000 !NTHETA: angles
         3         1         4         3         1         5         3         1         6
         4         1         5         4         1         6         5         1         6
         1         6         8         1         6        14         8         6        14
         6         8        10         6         8        11        10         8        11
         8        11        13         8        11        17        13        11        17
         6        14        16         6        14        17        16        14        17
        11        17        14        11        17        19        14        17        19
        23        21        24        23        21        25        23        21        26
        24        21        25        24        21        26        25        21        26
        21        26        28        21        26        34        28        26        34
        26        28        30        26        28        31        30        28        31
        28        31        33        28        31        37        33        31        37
        26        34        36        26        34        37        36        34        37
        31        37        34        31        37        39        34        37        39
        43        41        44        43        41        45        43        41        46
        44        41        45        44        41        46        45        41        46
        41        46        48        41        46        54        48        46        54
        46        48        50        46        48        51        50        48        51
        48        51        53        48        51        57        53        51        57
        46        54        56        46        54        57        56        54        57
        51        57        54        51        57        59        54        57        59
        63        61        64        63        61        65        63        61        66
        64        61        65        64        61        66        65        61        66
        61        66        68        61        66        74        68        66        74
        66        68        70        66        68        71        70        68        71
        68        71        73        68        71        77        73        71        77
        66        74        76        66        74        77        76        74        77
        71        77        74        71        77        79        74        77        79
        83        81        84        83        81        85        83        81        86
        84        81        85        84        81        86        85        81        86
        81        86        88        81        86        94        88        86        94
        86        88        90        86        88        91        90        88        91
        88        91        93        88        91        97        93        91        97
        86        94        96        86        94        97        96        94        97
        91        97        94        91        97        99        94        97        99
       103       101       104       103       101       105       103       101       106
       104       101       105       104       101       106       105       101       106
       101       106       108       101       106       114       108       106       114
       106       108       110       106       108       111       110       108       111
       108       111       113       108       111       117       113       111       117
       106       114       116       106       114       117       116       114       117
       111       117       114       111       117       119       114       117       119
       123       121       124       123       121       125       123       121       126
       124       121       125       124       121       126       125       121       126
       121       126       128       121       126       134       128       126       134
       126       128       130       126       128       131       130       128       131
       128       131       133       128       131       137       133       131       137
       126       134       136       126       134       137       136       134       137
       131       137       134       131       137       139       134       137       139
       143       141       144       143       141       145       143       141       146
       144       141       145       144       141       146       145       141       146
       141       146       148       141       146       154       148       146       154
       146       148       150       146       148       151       150       148       151
       148       151       153       148       151       157       153       151       157
       146       154       156       146       154       157       156       154       157
       151       157       154       151       157       159       154       157       159
       163       161       164       163       161       165       163       161       166
       164       161       165       164       161       166       165       161       166
       161       166       168       161       166       174       168       166       174
       166       168       170       166       168       171       170       168       171
       168       171       173       168       171       177       173       171       177
       166       174       176       166       174       177       176       174       177
       171       177       174       171       177       179       174       177       179
       183       181       184       183       181       185       183       181       186
       184       181       185       184       181       186       185       181       186
       181       186       188       181       186       194       188       186       194
       186       188       190       186       188       191       190       188       191
       188       191       193       188       191       197       193       191       197
       186       194       196       186       194       197       196       194       197
       191       197       194       191       197       199       194       197       199
       203       201       204       203       201       205       203       201       206
       204       201       205       204       201       206       205       201       206
       201       206       208       201       206       214       208       206       214
       206       208       210       206       208       211       210       208       211
       208       211       213       208       211       217       213       211       217
       206       214       216       206       214       217       216       214       217
       211       217       214       211       217       219       214       217       219
       223       221       224       223       221       225       223       221       226
       224       221       225       224       221       226       225       221       226
       221       226       228       221       226       234       228       226       234
       226       228       230       226       228       231       230       228       231
       228       231       233       228       231       237       233       231       237
       226       234       236       226       234       237       236       234       237
       231       237       234       231       237       239       234       237       239
       243       241       244       243       241       245       243       241       246
       244       241       245       244       241       246       245       241       246
       241       246       248       241       246       254       248       246       254
       246       248       250       246       248       251       250       248       251
       248       251       253       248       251       257       253       251       257
       246       254       256       246       254       257       256       254       257
       251       257       254       251       257       259       254       257       259
       263       261       264       263       261       265       263       261       266
       264       261       265       264       261       266       265       261       266
       261       266       268       261       266       274       268       266       274
       266       268       270       266       268       271       270       268       271
       268       271       273       268       271       277       273       271       277
       266       274       276       266       274       277       276       274       277
       271       277       274       271       277       279       274       277       279
       283       281       284       283       281       285       283       281       286
       284       281       285       284       281       286       285       281       286
       281       286       288       281       286       294       288       286       294
       286       288       290       286       288       291       290       288       291
       288       291       293       288       291       297       293       291       297
       286       294       296       286       294       297       296       294       297
       291       297       294       291       297       299       294       297       299
       303       301       304       303       301       305       303       301       306
       304       301       305       304       301       306       305       301       306
       301       306       308       301       306       314       308       306       314
       306       308       310       306       308       311       310       308       311
       308       311       313       308       311       317       313       311       317
       306       314       316       306       314       317       316       314       317
       311       317       314       311       317       319       314       317       319
       323       321       324       323       321       325       323       321       326
       324       321       325       324       321       326       325       321       326
       321       326       328       321       326       334       328       326       334
       326       328       330       326       328       331       330       328       331
       328       331       333       328       331       337       333       331       337
       326       334       336       326       334       337       336       334       337
       331       337       334       331       337       339       334       337       339
       343       341       344       343       341       345       343       341       346
       344       341       345       344       341       346       345       341       346
       341       346       348       341       346       354       348       346       354
       346       348       350       346       348       351       350       348       351
       348       351       353       348       351       357       353       351       357
       346       354       356       346       354       357       356       354       357
       351       357       354       351       357       359       354       357       359
       363       361       364       363       361       365       363       361       366
       364       361       365       364       361       366       365       361       366
       361       366       368       361       366       374       368       366       374
       366       368       370       366       368       371       370       368       371
       368       371       373       368       371       377       373       371       377
       366       374       376       366       374       377       376       374       377
       371       377       374       371       377       379       374       377       379
       383       381       384       383       381       385       383       381       386
       384       381       385       384       381       386       385       381       386
       381       386       388       381       386       394       388       386       394
       386       388       390       386       388       391       390       388       391
       388       391       393       388       391       397       393       391       397
       386       394       396       386       394       397       396       394       397
       391       397       394       391       397       399       394       397       399
       403       401       404       403       401       405       403       401       406
       404       401       405       404       401       406       405       401       406
       401       406       408       401       406       414       408       406       414
       406       408       410       406       408       411       410       408       411
       408       411       413       408       411       417       413       411       417
       406       414       416       406       414       417       416       414       417
       411       417       414       411       417       419       414       417       419
       423       421       424       423       421       425       423       421       426
       424       421       425       424       421       426       425       421       426
       421       426       428       421       426       434       428       426       434
       426       428       430       426       428       431       430       428       431
       428       431       433       428       431       437       433       431       437
       426       434       436       426       434       437       436       434       437
       431       437       434       431       437       439       434       437       439
       443       441       444       443       441       445       443       441       446
       444       441       445       444       441       446       445       441       446
       441       446       448       441       446       454       448       446       454
       446       448       450       446       448       451       450       448       451
       448       451       453       448       451       457       453       451       457
       446       454       456       446       454       457       456       454       457
       451       457       454       451       457       459       454       457       459
       463       461       464       463       461       465       463       461       466
       464       461       465       464       461       466       465       461       466
       461       466       468       461       466       474       468       466       474
       466       468       470       466       468       471       470       468       471
       468       471       473       468       471       477       473       471       477
       466       474       476       466       474       477       476       474       477
       471       477       474       471       477       479       474       477       479
       483       481       484       483       481       485       483       481       486
       484       481       485       484       481       486       485       481       486
       481       486       488       481       486       494       488       486       494
       486       488       490       486       488       491       490       488       491
       488       491       493       488       491       497       493       491       497
       486       494       496       486       494       497       496       494       497
       491       497       494       491       497       499       494       497       499
       503       501       504       503       501       505       503       501       506
       504       501       505       504       501       506       505       501       506
       501       506       508       501       506       514       508       506       514
       506       508       510       506       508       511       510       508       511
       508       511       513       508       511       517       513       511       517
       506       514       516       506       514       517       516       514       517
       511       517       514       511       517       519       514       517       519
       523       521       524       523       521       525       523       521       526
       524       521       525       524       521       526       525       521       526
       521       526       528       521       526       534       528       526       534
       526       528       530       526       528       531       530       528       531
       528       531       533       528       531       537       533       531       537
       526       534       536       526       534       537       536       534       537
       531       537       534       531       537       539       534       537       539
       543       541       544       543       541       545       543       541       546
       544       541       545       544       541       546       545       541       546
       541       546       548       541       546       554       548       546       554
       546       548       550       546       548       551       550       548       551
       548       551       553       548       551       557       553       551       557
       546       554       556       546       554       557       556       554       557
       551       557       554       551       557       559       554       557       559
       563       561       564       563       561       565       563       561       566
       564       561       565       564       561       566       565       561       566
       561       566       568       561       566       574       568       566       574
       566       568       570       566       568       571       570       568       571
       568       571       573       568       571       577       573       571       577
       566       574       576       566       574       577       576       574       577
       571       577       574       571       577       579       574       577       579
       583       581       584       583       581       585       583       581       586
       584       581       585       584       581       586       585       581       586
       581       586       588       581       586       594       588       586       594
       586       588       590       586       588       591       590       588       591
       588       591       593       588       591       597       593       591       597
       586       594       596       586       594       597       596       594       597
       591       597       594       591       597       599       594       597       599
       603       601       604       603       601       605       603       601       606
       604       601       605       604       601       606       605       601       606
       601       606       608       601       606       614       608       606       614
       606       608       610       606       608       611       610       608       611
       608       611       613       608       611       617       613       611       617
       606       614       616       606       614       617       616       614       617
       611       617       614       611       617       619       614       617       619
       623       621       624       623       621       625       623       621       626
       624       621       625       624       621       626       625       621       626
       621       626       628       621       626       634       628       626       634
       626       628       630       626       628       631       630       628       631
       628       631       633       628       631       637       633       631       637
       626       634       636       626       634       637       636       634       637
       631       637       634       631       637       639       634       637       639
       643       641       644       643       641       645       643       641       646
       644       641       645       644       641       646       645       641       646
       641       646       648       641       646       654       648       646       654
       646       648       650       646       648       651       650       648       651
       648       651       653       648       651       657       653       651       657
       646       654       656       646       654       657       656       654       657
       651       657       654       651       657       659       654       657       659
       663       661       664       663       661       665       663       661       666
       664       661       665       664       661       666       665       661       666
       661       666       668       661       666       674       668       666       674
       666       668       670       666       668       671       670       668       671
       668       671       673       668       671       677       673       671       677
       666       674       676       666       674       677       676       674       677
       671       677       674       671       677       679       674       677       679
       683       681       684       683       681       685       683       681       686
       684       681       685       684       681       686       685       681       686
       681       686       688       681       686       694       688       686       694
       686       688       690       686       688       691       690       688       691
       688       691       693       688       691       697       693       691       697
       686       694       696       686       694       697       696       694       697
       691       697       694       691       697       699       694       697       699
       703       701       704       703       701       705       703       701       706
       704       701       705       704       701       706       705       701       706
       701       706       708       701       706       714       708       706       714
       706       708       710       706       708       711       710       708       711
       708       711       713       708       711       717       713       711       717
       706       714       716       706       714       717       716       714       717
       711       717       714       711       717       719       714       717       719
       723       721       724       723       721       725       723       721       726
       724       721       725       724       721       726       725       721       726
       721       726       728       721       726       734       728       726       734
       726       728       730       726       728       731       730       728       731
       728       731       733       728       731       737       733       731       737
       726       734       736       726       734       737       736       734       737
       731       737       734       731       737       739       734       737       739
       743       741       744       743       741       745       743       741       746
       744       741       745       744       741       746       745       741       746
       741       746       748       741       746       754       748       746       754
       746       748       750       746       748       751       750       748       751
       748       751       753       748       751       757       753       751       757
       746       754       756       746       754       757       756       754       757
       751       757       754       751       757       759       754       757       759
       763       761       764       763       761       765       763       761       766
       764       761       765       764       761       766       765       761       766
       761       766       768       761       766       774       768       766       774
       766       768       770       766       768       771       770       768       771
       768       771       773       768       771       777       773       771       777
       766       774       776       766       774       777       776       774       777
       771       777       774       771       777       779       774       777       779
       783       781       784       783       781       785       783       781       786
       784       781       785       784       781       786       785       781       786
       781       786       788       781       786       794       788       786       794
       786       788       790       786       788       791       790       788       791
       788       791       793       788       791       797       793       791       797
       786       794       796       786       794       797       796       794       797
       791       797       794       791       797       799       794       797       799
       803       801       804       803       801       805       803       801       806
       804       801       805       804       801       806       805       801       806
       801       806       808       801       806       814       808       806       814
       806       808       810       806       808       811       810       808       811
       808       811       813       808       811       817       813       811       817
       806       814       816       806       814       817       816       814       817
       811       817       814       811       817       819       814       817       819
       823       821       824       823       821       825       823       821       826
       824       821       825       824       821       826       825       821       826
       821       826       828       821       826       834       828       826       834
       826       828       830       826       828       831       830       828       831
       828       831       833       828       831       837       833       831       837
       826       834       836       826       834       837       836       834       837
       831       837       834       831       837       839       834       837       839
       843       841       844       843       841       845       843       841       846
       844       841       845       844       841       846       845       841       846
       841       846       848       841       846       854       848       846       854
       846       848       850       846       848       851       850       848       851
       848       851       853       848       851       857       853       851       857
       846       854       856       846       854       857       856       854       857
       851       857       854       851       857       859       854       857       859
       863       861       864       863       861       865       863       861       866
       864       861       865       864       861       866       865       861       866
       861       866       868       861       866       874       868       866       874
       866       868       870       866       868       871       870       868       871
       868       871       873       868       871       877       873       871       877
       866       874       876       866       874       877       876       874       877
       871       877       874       871       877       879       874       877       879
       883       881       884       883       881       885       883       881       886
       884       881       885       884       881       886       885       881       886
       881       886       888       881       886       894       888       886       894
       886       888       890       886       888       891       890       888       891
       888       891       893       888       891       897       893       891       897
       886       894       896       886       894       897       896       894       897
       891       897       894       891       897       899       894       897       899
       903       901       904       903       901       905       903       901       906
       904       901       905       904       901       906       905       901       906
       901       906       908       901       906       914       908       906       914
       906       908       910       906       908       911       910       908       911
       908       911       913       908       911       917       913       911       917
       906       914       916       906       914       917       916       914       917
       911       917       914       911       917       919       914       917       919
       923       921       924       923       921       925       923       921       926
       924       921       925       924       921       926       925       921       926
       921       926       928       921       926       934       928       926       934
       926       928       930       926       928       931       930       928       931
       928       931       933       928       931       937       933       931       937
       926       934       936       926       934       937       936       934       937
       931       937       934       931       937       939       934       937       939
       943       941       944       943       941       945       943       941       946
       944       941       945       944       941       946       945       941       946
       941       946       948       941       946       954       948       946       954
       946       948       950       946       948       951       950       948       951
       948       951       953       948       951       957       953       951       957
       946       954       956       946       954       957       956       954       957
       951       957       954       951       957       959       954       957       959
       963       961       964       963       961       965       963       961       966
       964       961       965       964       961       966       965       961       966
       961       966       968       961       966       974       968       966       974
       966       968       970       966       968       971       970       968       971
       968       971       973       968       971       977       973       971       977
       966       974       976       966       974       977       976       974       977
       971       977       974       971       977       979       974       977       979
       983       981       984       983       981       985       983       981       986
       984       981       985       984       981       986       985       981       986
       981       986       988       981       986       994       988       986       994
       986       988       990       986       988       991       990       988       991
       988       991       993       988       991       997       993       991       997
       986       994       996       986       994       997       996       994       997
       991       997       994       991       997       999       994       997       999
      1003      1001      1004      1003      1001      1005      1003      1001      1006
      1004      1001      1005      1004      1001      1006      1005      1001      1006
      1001      1006      1008      1001      1006      1014      1008      1006      1014
      1006      1008      1010      1006      1008      1011      1010      1008      1011
      1008      1011      1013      1008      1011      1017      1013      1011      1017
      1006      1014      1016      1006      1014      1017      1016      1014      1017
      1011      1017      1014      1011      1017      1019      1014      1017      1019
      1023      1021      1024      1023      1021      1025      1023      1021      1026
      1024      1021      1025      1024      1021      1026      1025      1021      1026
      1021      1026      1028      1021      1026      1034      1028      1026      1034
      1026      1028      1030      1026      1028      1031      1030      1028      1031
      1028      1031      1033      1028      1031      1037      1033      1031      1037
      1026      1034      1036      1026      1034      1037      1036      1034      1037
      1031      1037      1034      1031      1037      1039      1034      1037      1039
      1043      1041      1044      1043      1041      1045      1043      1041      1046
      1044      1041      1045      1044      1041      1046      1045      1041      1046
      1041      1046      1048      1041      1046      1054      1048      1046      1054
      1046      1048      1050      1046      1048      1051      1050      1048      1051
      1048      1051      1053      1048      1051      1057      1053      1051      1057
      1046      1054      1056      1046      1054      1057      1056      1054      1057
      1051      1057      1054      1051      1057      1059      1054      1057      1059
      1063      1061      1064      1063      1061      1065      1063      1061      1066
      1064      1061      1065      1064      1061      1066      1065      1061      1066
      1061      1066      1068      1061      1066      1074      1068      1066      1074
      1066      1068      1070      1066      1068      1071      1070      1068      1071
      1068      1071      1073      1068      1071      1077      1073      1071      1077
      1066      1074      1076      1066      1074      1077      1076      1074      1077
      1071      1077      1074      1071      1077      1079      1074      1077      1079
      1083      1081      1084      1083      1081      1085      1083      1081      1086
      1084      1081      1085      1084      1081      1086      1085      1081      1086
      1081      1086      1088      1081      1086      1094      1088      1086      1094
      1086      1088      1090      1086      1088      1091      1090      1088      1091
      1088      1091      1093      1088      1091      1097      1093      1091      1097
      1086      1094      1096      1086      1094      1097      1096      1094      1097
      1091      1097      1094      1091      1097      1099      1094      1097      1099
      1103      1101      1104      1103      1101      1105      1103      1101      1106
      1104      1101      1105      1104      1101      1106      1105      1101      1106
      1101      1106      1108      1101      1106      1114      1108      1106      1114
      1106      1108      1110      1106      1108      1111      1110      1108      1111
      1108      1111      1113      1108      1111      1117      1113      1111      1117
      1106      1114      1116      1106      1114      1117      1116      1114      1117
      1111      1117      1114      1111      1117      1119      1114      1117      1119
      1123      1121      1124      1123      1121      1125      1123      1121      1126
      1124      1121      1125      1124      1121      1126      1125      1121      1126
      1121      1126      1128      1121      1126      1134      1128      1126      1134
      1126      1128      1130      1126      1128      1131      1130      1128      1131
      1128      1131      1133      1128      1131      1137      1133      1131      1137
      1126      1134      1136      1126      1134      1137      1136      1134      1137
      1131      1137      1134      1131      1137      1139      1134      1137      1139
      1143      1141      1144      1143      1141      1145      1143      1141      1146
      1144      1141      1145      1144      1141      1146      1145      1141      1146
      1141      1146      1148      1141      1146      1154      1148      1146      1154
      1146      1148      1150      1146      1148      1151      1150      1148      1151
      1148      1151      1153      1148      1151      1157      1153      1151      1157
      1146      1154      1156      1146      1154      1157      1156      1154      1157
      1151      1157      1154      1151      1157      1159      1154      1157      1159
      1163      1161      1164      1163      1161      1165      1163      1161      1166
      1164      1161      1165      1164      1161      1166      1165      1161      1166
      1161      1166      1168      1161      1166      1174      1168      1166      1174
      1166      1168      1170      1166      1168      1171      1170      1168      1171
      1168      1171      1173      1168      1171      1177      1173      1171      1177
      1166      1174      1176      1166      1174      1177      1176      1174      1177
      1171      1177      1174      1171      1177      1179      1174      1177      1179
      1183      1181      1184      1183      1181      1185      1183      1181      1186
      1184      1181      1185      1184      1181      1186      1185      1181      1186
      1181      1186      1188      1181      1186      1194      1188      1186      1194
      1186      1188      1190      1186      1188      1191      1190      1188      1191
      1188      1191      1193      1188      1191      1197      1193      1191      1197
      1186      1194      1196      1186      1194      1197      1196      1194      1197
      1191      1197      1194      1191      1197      1199      1194      1197      1199
      1203      1201      1204      1203      1201      1205      1203      1201      1206
      1204      1201      1205      1204      1201      1206      1205      1201      1206
      1201      1206      1208      1201      1206      1214      1208      1206      1214
      1206      1208      1210      1206      1208      1211      1210      1208      1211
      1208      1211      1213      1208      1211      1217      1213      1211      1217
      1206      1214      1216      1206      1214      1217      1216      1214      1217
      1211      1217      1214      1211      1217      1219      1214      1217      1219
      1223      1221      1224      1223      1221      1225      1223      1221      1226
      1224      1221      1225      1224      1221      1226      1225      1221      1226
      1221      1226      1228      1221      1226      1234      1228      1226      1234
      1226      1228      1230      1226      1228      1231      1230      1228      1231
      1228      1231      1233      1228      1231      1237      1233      1231      1237
      1226      1234      1236      1226      1234      1237      1236      1234      1237
      1231      1237      1234      1231      1237      1239      1234      1237      1239
      1243      1241      1244      1243      1241      1245      1243      1241      1246
      1244      1241      1245      1244      1241      1246      1245      1241      1246
      1241      1246      1248      1241      1246      1254      1248      1246      1254
      1246      1248      1250      1246      1248      1251      1250      1248      1251
      1248      1251      1253      1248      1251      1257      1253      1251      1257
      1246      1254      1256      1246      1254      1257      1256      1254      1257
      1251      1257      1254      1251      1257      1259      1254      1257      1259
      1263      1261      1264      1263      1261      1265      1263      1261      1266
      1264      1261      1265      1264      1261      1266      1265      1261      1266
      1261      1266      1268      1261      1266      1274      1268      1266      1274
      1266      1268      1270      1266      1268      1271      1270      1268      1271
      1268      1271      1273      1268      1271      1277      1273      1271      1277
      1266      1274      1276      1266      1274      1277      1276      1274      1277
      1271      1277      1274      1271      1277      1279      1274      1277      1279
      1283      1281      1284      1283      1281      1285      1283      1281      1286
      1284      1281      1285      1284      1281      1286      1285      1281      1286
      1281      1286      1288      1281      1286      1294      1288      1286      1294
      1286      1288      1290      1286      1288      1291      1290      1288      1291
      1288      1291      1293      1288      1291      1297      1293      1291      1297
      1286      1294      1296      1286      1294      1297      1296      1294      1297
      1291      1297      1294      1291      1297      1299      1294      1297      1299
      1303      1301      1304      1303      1301      1305      1303      1301      1306
      1304      1301      1305      1304      1301      1306      1305      1301      1306
      1301      1306      1308      1301      1306      1314      1308      1306      1314
      1306      1308      1310      1306      1308      1311      1310      1308      1311
      1308      1311      1313      1308      1311      1317      1313      1311      1317
      1306      1314      1316      1306      1314      1317      1316      1314      1317
      1311      1317      1314      1311      1317      1319      1314      1317      1319
      1323      1321      1324      1323      1321      1325      1323      1321      1326
      1324      1321      1325      1324      1321      1326      1325      1321      1326
      1321      1326      1328      1321      1326      1334      1328      1326      1334
      1326      1328      1330      1326      1328      1331      1330      1328      1331
      1328      1331      1333      1328      1331      1337      1333      1331      1337
      1326      1334      1336      1326      1334      1337      1336      1334      1337
      1331      1337      1334      1331      1337      1339      1334      1337      1339
      1343      1341      1344      1343      1341      1345      1343      1341      1346
      1344      1341      1345      1344      1341      1346      1345      1341      1346
      1341      1346      1348      1341      1346      1354      1348      1346      1354
      1346      1348      1350      1346      1348      1351      1350      1348      1351
      1348      1351      1353      1348      1351      1357      1353      1351      1357
      1346      1354      1356      1346      1354      1357      1356      1354      1357
      1351      1357      1354      1351      1357      1359      1354      1357      1359
      1363      1361      1364      1363      1361      1365      1363      1361      1366
      1364      1361      1365      1364      1361      1366      1365      1361      1366
      1361      1366      1368      1361      1366      1374      1368      1366      1374
      1366      1368      1370      1366      1368      1371      1370      1368      1371
      1368      1371      1373      1368      1371      1377      1373      1371      1377
      1366      1374      1376      1366      1374      1377      1376      1374      1377
      1371      1377      1374      1371      1377      1379      1374      1377      1379
      1383      1381      1384      1383      1381      1385      1383      1381      1386
      1384      1381      1385      1384      1381      1386      1385      1381      1386
      1381      1386      1388      1381      1386      1394      1388      1386      1394
      1386      1388      1390      1386      1388      1391      1390      1388      1391
      1388      1391      1393      1388      1391      1397      1393      1391      1397
      1386      1394      1396      1386      1394      1397      1396      1394      1397
      1391      1397      1394      1391      1397      1399      1394      1397      1399
      1403      1401      1404      1403      1401      1405      1403      1401      1406
      1404      1401      1405      1404      1401      1406      1405      1401      1406
      1401      1406      1408      1401      1406      1414      1408      1406      1414
      1406      1408      1410      1406      1408      1411      1410      1408      1411
      1408      1411      1413      1408      1411      1417      1413      1411      1417
      1406      1414      1416      1406      1414      1417      1416      1414      1417
      1411      1417      1414      1411      1417      1419      1414      1417      1419
      1423      1421      1424      1423      1421      1425      1423      1421      1426
      1424      1421      1425      1424      1421      1426      1425      1421      1426
      1421      1426      1428      1421      1426      1434      1428      1426      1434
      1426      1428      1430      1426      1428      1431      1430      1428      1431
      1428      1431      1433      1428      1431      1437      1433      1431      1437
      1426      1434      1436      1426      1434      1437      1436      1434      1437
      1431      1437      1434      1431      1437      1439      1434      1437      1439
      1443      1441      1444      1443      1441      1445      1443      1441      1446
      1444      1441      1445      1444      1441      1446      1445      1441      1446
      1441      1446      1448      1441      1446      1454      1448      1446      1454
      1446      1448      1450      1446      1448      1451      1450      1448      1451
      1448      1451      1453      1448      1451      1457      1453      1451      1457
      1446      1454      1456      1446      1454      1457      1456      1454      1457
      1451      1457      1454      1451      1457      1459      1454      1457      1459
      1463      1461      1464      1463      1461      1465      1463      1461      1466
      1464      1461      1465      1464      1461      1466      1465      1461      1466
      1461      1466      1468      1461      1466      1474      1468      1466      1474
      1466      1468      1470      1466      1468      1471      1470      1468      1471
      1468      1471      1473      1468      1471      1477      1473      1471      1477
      1466      1474      1476      1466      1474      1477      1476      1474      1477
      1471      1477      1474      1471      1477      1479      1474      1477      1479
      1483      1481      1484      1483      1481      1485      1483      1481      1486
      1484      1481      1485      1484      1481      1486      1485      1481      1486
      1481      1486      1488      1481      1486      1494      1488      1486      1494
      1486      1488      1490      1486      1488      1491      1490      1488      1491
      1488      1491      1493      1488      1491      1497      1493      1491      1497
      1486      1494      1496      1486      1494      1497      1496      1494      1497
      1491      1497      1494      1491      1497      1499      1494      1497      1499
      1503      1501      1504      1503      1501      1505      1503      1501      1506
      1504      1501      1505      1504      1501      1506      1505      1501      1506
      1501      1506      1508      1501      1506      1514      1508      1506      1514
      1506      1508      1510      1506      1508      1511      1510      1508      1511
      1508      1511      1513      1508      1511      1517      1513      1511      1517
      1506      1514      1516      1506      1514      1517      1516      1514      1517
      1511      1517      1514      1511      1517      1519      1514      1517      1519
      1523      1521      1524      1523      1521      1525      1523      1521      1526
      1524      1521      1525      1524      1521      1526      1525      1521      1526
      1521      1526      1528      1521      1526      1534      1528      1526      1534
      1526      1528      1530      1526      1528      1531      1530      1528      1531
      1528      1531      1533      1528      1531      1537      1533      1531      1537
      1526      1534      1536      1526      1534      1537      1536      1534      1537
      1531      1537      1534      1531      1537      1539      1534      1537      1539
      1543      1541      1544      1543      1541      1545      1543      1541      1546
      1544      1541      1545      1544      1541      1546      1545      1541      1546
      1541      1546      1548      1541      1546      1554      1548      1546      1554
      1546      1548      1550      1546      1548      1551      1550      1548      1551
      1548      1551      1553      1548      1551      1557      1553      1551      1557
      1546      1554      1556      1546      1554      1557      1556      1554      1557
      1551      1557      1554      1551      1557      1559      1554      1557      1559
      1563      1561      1564      1563      1561      1565      1563      1561      1566
      1564      1561      1565      1564      1561      1566      1565      1561      1566
      1561      1566      1568      1561      1566      1574      1568      1566      1574
      1566      1568      1570      1566      1568      1571      1570      1568      1571
      1568      1571      1573      1568      1571      1577      1573      1571      1577
      1566      1574      1576      1566      1574      1577      1576      1574      1577
      1571      1577      1574      1571      1577      1579      1574      1577      1579
      1583      1581      1584      1583      1581      1585      1583      1581      1586
      1584      1581      1585      1584      1581      1586      1585      1581      1586
      1581      1586      1588      1581      1586      1594      1588      1586      1594
      1586      1588      1590      1586      1588      1591      1590      1588      1591
      1588      1591      1593      1588      1591      1597      1593      1591      1597
      1586      1594      1596      1586      1594      1597      1596      1594      1597
      1591      1597      1594      1591      1597      1599      1594      1597      1599
      1603      1601      1604      1603      1601      1605      1603      1601      1606
      1604      1601      1605      1604      1601      1606      1605      1601      1606
      1601      1606      1608      1601      1606      1614      1608      1606      1614
      1606      1608      1610      1606      1608      1611      1610      1608      1611
      1608      1611      1613      1608      1611      1617      1613      1611      1617
      1606      1614      1616      1606      1614      1617      1616      1614      1617
      1611      1617      1614      1611      1617      1619      1614      1617      1619
      1623      1621      1624      1623      1621      1625      1623      1621      1626
      1624      1621      1625      1624      1621      1626      1625      1621      1626
      1621      1626      1628      1621      1626      1634      1628      1626      1634
      1626      1628      1630      1626      1628      1631      1630      1628      1631
      1628      1631      1633      1628      1631      1637      1633      1631      1637
      1626      1634      1636      1626      1634      1637      1636      1634      1637
      1631      1637      1634      1631      1637      1639      1634      1637      1639
      1643      1641      1644      1643      1641      1645      1643      1641      1646
      1644      1641      1645      1644      1641      1646      1645      1641      1646
      1641      1646      1648      1641      1646      1654      1648      1646      1654
      1646      1648      1650      1646      1648      1651      1650      1648      1651
      1648      1651      1653      1648      1651      1657      1653      1651      1657
      1646      1654      1656      1646      1654      1657      1656      1654      1657
      1651      1657      1654      1651      1657      1659      1654      1657      1659
      1663      1661      1664      1663      1661      1665      1663      1661      1666
      1664      1661      1665      1664      1661      1666      1665      1661      1666
      1661      1666      1668      1661      1666      1674      1668      1666      1674
      1666      1668      1670      1666      1668      1671      1670      1668      1671
      1668      1671      1673      1668      1671      1677      1673      1671      1677
      1666      1674      1676      1666      1674      1677      1676      1674      1677
      1671      1677      1674      1671      1677      1679      1674      1677      1679
      1683      1681      1684      1683      1681      1685      1683      1681      1686
      1684      1681      1685      1684      1681      1686      1685      1681      1686
      1681      1686      1688      1681      1686      1694      1688      1686      1694
      1686      1688      1690      1686      1688      1691      1690      1688      1691
      1688      1691      1693      1688      1691      1697      1693      1691      1697
      1686      1694      1696      1686      1694      1697      1696      1694      1697
      1691      1697      1694      1691      1697      1699      1694      1697      1699
      1703      1701      1704      1703      1701      1705      1703      1701      1706
      1704      1701      1705      1704      1701      1706      1705      1701      1706
      1701      1706      1708      1701      1706      1714      1708      1706      1714
      1706      1708      1710      1706      1708      1711      1710      1708      1711
      1708      1711      1713      1708      1711      1717      1713      1711      1717
      1706      1714      1716      1706      1714      1717      1716      1714      1717
      1711      1717      1714      1711      1717      1719      1714      1717      1719
      1723      1721      1724      1723      1721      1725      1723      1721      1726
      1724      1721      1725      1724      1721      1726      1725      1721      1726
      1721      1726      1728      1721      1726      1734      1728      1726      1734
      1726      1728      1730      1726      1728      1731      1730      1728      1731
      1728      1731      1733      1728      1731      1737      1733      1731      1737
      1726      1734      1736      1726      1734      1737      1736      1734      1737
      1731      1737      1734      1731      1737      1739      1734      1737      1739
      1743      1741      1744      1743      1741      1745      1743      1741      1746
      1744      1741      1745      1744      1741      1746      1745      1741      1746
      1741      1746      1748      1741      1746      1754      1748      1746      1754
      1746      1748      1750      1746      1748      1751      1750      1748      1751
      1748      1751      1753      1748      1751      1757      1753      1751      1757
      1746      1754      1756      1746      1754      1757      1756      1754      1757
      1751      1757      1754      1751      1757      1759      1754      1757      1759
      1763      1761      1764      1763      1761      1765      1763      1761      1766
      1764      1761      1765      1764      1761      1766      1765      1761      1766
      1761      1766      1768      1761      1766      1774      1768      1766      1774
      1766      1768      1770      1766      1768      1771      1770      1768      1771
      1768      1771      1773      1768      1771      1777      1773      1771      1777
      1766      1774      1776      1766      1774      1777      1776      1774      1777
      1771      1777      1774      1771      1777      1779      1774      1777      1779
      1783      1781      1784      1783      1781      1785      1783      1781      1786
      1784      1781      1785      1784      1781      1786      1785      1781      1786
      1781      1786      1788      1781      1786      1794      1788      1786      1794
      1786      1788      1790      1786      1788      1791      1790      1788      1791
      1788      1791      1793      1788      1791      1797      1793      1791      1797
      1786      1794      1796      1786      1794      1797      1796      1794      1797
      1791      1797      1794      1791      1797      1799      1794      1797      1799
      1803      1801      1804      1803      1801      1805      1803      1801      1806
      1804      1801      1805      1804      1801      1806      1805      1801      1806
      1801      1806      1808      1801      1806      1814      1808      1806      1814
      1806      1808      1810      1806      1808      1811      1810      1808      1811
      1808      1811      1813      1808      1811      1817      1813      1811      1817
      1806      1814      1816      1806      1814      1817      1816      1814      1817
      1811      1817      1814      1811      1817      1819      1814      1817      1819
      1823      1821      1824      1823      1821      1825      1823      1821      1826
      1824      1821      1825      1824      1821      1826      1825      1821      1826
      1821      1826      1828      1821      1826      1834      1828      1826      1834
      1826      1828      1830      1826      1828      1831      1830      1828      1831
      1828      1831      1833      1828      1831      1837      1833      1831      1837
      1826      1834      1836      1826      1834      1837      1836      1834      1837
      1831      1837      1834      1831      1837      1839      1834      1837      1839
      1843      1841      1844      1843      1841      1845      1843      1841      1846
      1844      1841      1845      1844      1841      1846      1845      1841      1846
      1841      1846      1848      1841      1846      1854      1848      1846      1854
      1846      1848      1850      1846      1848      1851      1850      1848      1851
      1848      1851      1853      1848      1851      1857      1853      1851      1857
      1846      1854      1856      1846      1854      1857      1856      1854      1857
      1851      1857      1854      1851      1857      1859      1854      1857      1859
      1863      1861      1864      1863      1861      1865      1863      1861      1866
      1864      1861      1865      1864      1861      1866      1865      1861      1866
      1861      1866      1868      1861      1866      1874      1868      1866      1874
      1866      1868      1870      1866      1868      1871      1870      1868      1871
      1868      1871      1873      1868      1871      1877      1873      1871      1877
      1866      1874      1876      1866      1874      1877      1876      1874      1877
      1871      1877      1874      1871      1877      1879      1874      1877      1879
      1883      1881      1884      1883      1881      1885      1883      1881      1886
      1884      1881      1885      1884      1881      1886      1885      1881      1886
      1881      1886      1888      1881      1886      1894      1888      1886      1894
      1886      1888      1890      1886      1888      1891      1890      1888      1891
      1888      1891      1893      1888      1891      1897      1893      1891      1897
      1886      1894      1896      1886      1894      1897      1896      1894      1897
      1891      1897      1894      1891      1897      1899      1894      1897      1899
      1903      1901      1904      1903      1901      1905      1903      1901      1906
      1904      1901      1905      1904      1901      1906      1905      1901      1906
      1901      1906      1908      1901      1906      1914      1908      1906      1914
      1906      1908      1910      1906      1908      1911      1910      1908      1911
      1908      1911      1913      1908      1911      1917      1913      1911      1917
      1906      1914      1916      1906      1914      1917      1916      1914      1917
      1911      1917      1914      1911      1917      1919      1914      1917      1919
      1923      1921      1924      1923      1921      1925      1923      1921      1926
      1924      1921      1925      1924      1921      1926      1925      1921      1926
      1921      1926      1928      1921      1926      1934      1928      1926      1934
      1926      1928      1930      1926      1928      1931      1930      1928      1931
      1928      1931      1933      1928      1931      1937      1933      1931      1937
      1926      1934      1936      1926      1934      1937      1936      1934      1937
      1931      1937      1934      1931      1937      1939      1934      1937      1939
      1943      1941      1944      1943      1941      1945      1943      1941      1946
      1944      1941      1945      1944      1941      1946      1945      1941      1946
      1941      1946      1948      1941      1946      1954      1948      1946      1954
      1946      1948      1950      1946      1948      1951      1950      1948      1951
      1948      1951      1953      1948      1951      1957      1953      1951      1957
      1946      1954      1956      1946      1954      1957      1956      1954      1957
      1951      1957      1954      1951      1957      1959      1954      1957      1959
      1963      1961      1964      1963      1961      1965      1963      1961      1966
      1964      1961      1965      1964      1961      1966      1965      1961      1966
      1961      1966      1968      1961      1966      1974      1968      1966      1974
      1966      1968      1970      1966      1968      1971      1970      1968      1971
      1968      1971      1973      1968      1971      1977      1973      1971      1977
      1966      1974      1976      1966      1974      1977      1976      1974      1977
      1971      1977      1974      1971      1977      1979      1974      1977      1979
      1983      1981      1984      1983      1981      1985      1983      1981      1986
      1984      1981      1985      1984      1981      1986      1985      1981      1986
      1981      1986      1988      1981      1986      1994      1988      1986      1994
      1986      1988      1990      1986      1988      1991      1990      1988      1991
      1988      1991      1993      1988      1991      1997      1993      1991      1997
      1986      1994      1996      1986      1994      1997      1996      1994      1997
      1991      1997      1994      1991      1997      1999      1994      1997      1999
      2003      2001      2004      2003      2001      2005      2003      2001      2006
      2004      2001      2005      2004      2001      2006      2005      2001      2006
      2001      2006      2008      2001      2006      2014      2008      2006      2014
      2006      2008      2010      2006      2008      2011      2010      2008      2011
      2008      2011      2013      2008      2011      2017      2013      2011      2017
      2006      2014      2016      2006      2014      2017      2016      2014      2017
      2011      2017      2014      2011      2017      2019      2014      2017      2019
      2023      2021      2024      2023      2021      2025      2023      2021      2026
      2024      2021      2025      2024      2021      2026      2025      2021      2026
      2021      2026      2028      2021      2026      2034      2028      2026      2034
      2026      2028      2030      2026      2028      2031      2030      2028      2031
      2028      2031      2033      2028      2031      2037      2033      2031      2037
      2026      2034      2036      2026      2034      2037      2036      2034      2037
      2031      2037      2034      2031      2037      2039      2034      2037      2039
      2043      2041      2044      2043      2041      2045      2043      2041      2046
      2044      2041      2045      2044      2041      2046      2045      2041      2046
      2041      2046      2048      2041      2046      2054      2048      2046      2054
      2046      2048      2050      2046      2048      2051      2050      2048      2051
      2048      2051      2053      2048      2051      2057      2053      2051      2057
      2046      2054      2056      2046      2054      2057      2056      2054      2057
      2051      2057      2054      2051      2057      2059      2054      2057      2059
      2063      2061      2064      2063      2061      2065      2063      2061      2066
      2064      2061      2065      2064      2061      2066      2065      2061      2066
      2061      2066      2068      2061      2066      2074      2068      2066      2074
      2066      2068      2070      2066      2068      2071      2070      2068      2071
      2068      2071      2073      2068      2071      2077      2073      2071      2077
      2066      2074      2076      2066      2074      2077      2076      2074      2077
      2071      2077      2074      2071      2077      2079      2074      2077      2079
      2083      2081      2084      2083      2081      2085      2083      2081      2086
      2084      2081      2085      2084      2081      2086      2085      2081      2086
      2081      2086      2088      2081      2086      2094      2088      2086      2094
      2086      2088      2090      2086      2088      2091      2090      2088      2091
      2088      2091      2093      2088      2091      2097      2093      2091      2097
      2086      2094      2096      2086      2094      2097      2096      2094      2097
      2091      2097      2094      2091      2097      2099      2094      2097      2099
      2103      2101      2104      2103      2101      2105      2103      2101      2106
      2104      2101      2105      2104      2101      2106      2105      2101      2106
      2101      2106      2108      2101      2106      2114      2108      2106      2114
      2106      2108      2110      2106      2108      2111      2110      2108      2111
      2108      2111      2113      2108      2111      2117      2113      2111      2117
      2106      2114      2116      2106      2114      2117      2116      2114      2117
      2111      2117      2114      2111      2117      2119      2114      2117      2119
      2123      2121      2124      2123      2121      2125      2123      2121      2126
      2124      2121      2125      2124      2121      2126      2125      2121      2126
      2121      2126      2128      2121      2126      2134      2128      2126      2134
      2126      2128      2130      2126      2128      2131      2130      2128      2131
      2128      2131      2133      2128      2131      2137      2133      2131      2137
      2126      2134      2136      2126      2134      2137      2136      2134      2137
      2131      2137      2134      2131      2137      2139      2134      2137      2139
      2143      2141      2144      2143      2141      2145      2143      2141      2146
      2144      2141      2145      2144      2141      2146      2145      2141      2146
      2141      2146      2148      2141      2146      2154      2148      2146      2154
      2146      2148      2150      2146      2148      2151      2150      2148      2151
      2148      2151      2153      2148      2151      2157      2153      2151      2157
      2146      2154      2156      2146      2154      2157      2156      2154      2157
      2151      2157      2154      2151      2157      2159      2154      2157      2159
      2163      2161      2164      2163      2161      2165      2163      2161      2166
      2164      2161      2165      2164      2161      2166      2165      2161      2166
      2161      2166      2168      2161      2166      2174      2168      2166      2174
      2166      2168      2170      2166      2168      2171      2170      2168      2171
      2168      2171      2173      2168      2171      2177      2173      2171      2177
      2166      2174      2176      2166      2174      2177      2176      2174      2177
      2171      2177      2174      2171      2177      2179      2174      2177      2179
      2183      2181      2184      2183      2181      2185      2183      2181      2186
      2184      2181      2185      2184      2181      2186      2185      2181      2186
      2181      2186      2188      2181      2186      2194      2188      2186      2194
      2186      2188      2190      2186      2188      2191      2190      2188      2191
      2188      2191      2193      2188      2191      2197      2193      2191      2197
      2186      2194      2196      2186      2194      2197      2196      2194      2197
      2191      2197      2194      2191      2197      2199      2194      2197      2199
      2203      2201      2204      2203      2201      2205      2203      2201      2206
      2204      2201      2205      2204      2201      2206      2205      2201      2206
      2201      2206      2208      2201      2206      2214      2208      2206      2214
      2206      2208      2210      2206      2208      2211      2210      2208      2211
      2208      2211      2213      2208      2211      2217      2213      2211      2217
      2206      2214      2216      2206      2214      2217      2216      2214      2217
      2211      2217      2214      2211      2217      2219      2214      2217      2219
      2223      2221      2224      2223      2221      2225      2223      2221      2226
      2224      2221      2225      2224      2221      2226      2225      2221      2226
      2221      2226      2228      2221      2226      2234      2228      2226      2234
      2226      2228      2230      2226      2228      2231      2230      2228      2231
      2228      2231      2233      2228      2231      2237      2233      2231      2237
      2226      2234      2236      2226      2234      2237      2236      2234      2237
      2231      2237      2234      2231      2237      2239      2234      2237      2239
      2243      2241      2244      2243      2241      2245      2243      2241      2246
      2244      2241      2245      2244      2241      2246      2245      2241      2246
      2241      2246      2248      2241      2246      2254      2248      2246      2254
      2246      2248      2250      2246      2248      2251      2250      2248      2251
      2248      2251      2253      2248      2251      2257      2253      2251      2257
      2246      2254      2256      2246      2254      2257      2256      2254      2257
      2251      2257      2254      2251      2257      2259      2254      2257      2259
      2263      2261      2264      2263      2261      2265      2263      2261      2266
      2264      2261      2265      2264      2261      2266      2265      2261      2266
      2261      2266      2268      2261      2266      2274      2268      2266      2274
      2266      2268      2270      2266      2268      2271      2270      2268      2271
      2268      2271      2273      2268      2271      2277      2273      2271      2277
      2266      2274      2276      2266      2274      2277      2276      2274      2277
      2271      2277      2274      2271      2277      2279      2274      2277      2279
      2283      2281      2284      2283      2281      2285      2283      2281      2286
      2284      2281      2285      2284      2281      2286      2285      2281      2286
      2281      2286      2288      2281      2286      2294      2288      2286      2294
      2286      2288      2290      2286      2288      2291      2290      2288      2291
      2288      2291      2293      2288      2291      2297      2293      2291      2297
      2286      2294      2296      2286      2294      2297      2296      2294      2297
      2291      2297      2294      2291      2297      2299      2294      2297      2299
      2303      2301      2304      2303      2301      2305      2303      2301      2306
      2304      2301      2305      2304      2301      2306      2305      2301      2306
      2301      2306      2308      2301      2306      2314      2308      2306      2314
      2306      2308      2310      2306      2308      2311      2310      2308      2311
      2308      2311      2313      2308      2311      2317      2313      2311      2317
      2306      2314      2316      2306      2314      2317      2316      2314      2317
      2311      2317      2314      2311      2317      2319      2314      2317      2319
      2323      2321      2324      2323      2321      2325      2323      2321      2326
      2324      2321      2325      2324      2321      2326      2325      2321      2326
      2321      2326      2328      2321      2326      2334      2328      2326      2334
      2326      2328      2330      2326      2328      2331      2330      2328      2331
      2328      2331      2333      2328      2331      2337      2333      2331      2337
      2326      2334      2336      2326      2334      2337      2336      2334      2337
      2331      2337      2334      2331      2337      2339      2334      2337      2339
      2343      2341      2344      2343      2341      2345      2343      2341      2346
      2344      2341      2345      2344      2341      2346      2345      2341      2346
      2341      2346      2348      2341      2346      2354      2348      2346      2354
      2346      2348      2350      2346      2348      2351      2350      2348      2351
      2348      2351      2353      2348      2351      2357      2353      2351      2357
      2346      2354      2356      2346      2354      2357      2356      2354      2357
      2351      2357      2354      2351      2357      2359      2354      2357      2359
      2363      2361      2364      2363      2361      2365      2363      2361      2366
      2364      2361      2365      2364      2361      2366      2365      2361      2366
      2361      2366      2368      2361      2366      2374      2368      2366      2374
      2366      2368      2370      2366      2368      2371      2370      2368      2371
      2368      2371      2373      2368      2371      2377      2373      2371      2377
      2366      2374      2376      2366      2374      2377      2376      2374      2377
      2371      2377      2374      2371      2377      2379      2374      2377      2379
      2383      2381      2384      2383      2381      2385      2383      2381      2386
      2384      2381      2385      2384      2381      2386      2385      2381      2386
      2381      2386      2388      2381      2386      2394      2388      2386      2394
      2386      2388      2390      2386      2388      2391      2390      2388      2391
      2388      2391      2393      2388      2391      2397      2393      2391      2397
      2386      2394      2396      2386      2394      2397      2396      2394      2397
      2391      2397      2394      2391      2397      2399      2394      2397      2399
      2403      2401      2404      2403      2401      2405      2403      2401      2406
      2404      2401      2405      2404      2401      2406      2405      2401      2406
      2401      2406      2408      2401      2406      2414      2408      2406      2414
      2406      2408      2410      2406      2408      2411      2410      2408      2411
      2408      2411      2413      2408      2411      2417      2413      2411      2417
      2406      2414      2416      2406      2414      2417      2416      2414      2417
      2411      2417      2414      2411      2417      2419      2414      2417      2419
      2423      2421      2424      2423      2421      2425      2423      2421      2426
      2424      2421      2425      2424      2421      2426      2425      2421      2426
      2421      2426      2428      2421      2426      2434      2428      2426      2434
      2426      2428      2430      2426      2428      2431      2430      2428      2431
      2428      2431      2433      2428      2431      2437      2433      2431      2437
      2426      2434      2436      2426      2434      2437      2436      2434      2437
      2431      2437      2434      2431      2437      2439      2434      2437      2439
      2443      2441      2444      2443      2441      2445      2443      2441      2446
      2444      2441      2445      2444      2441      2446      2445      2441      2446
      2441      2446      2448      2441      2446      2454      2448      2446      2454
      2446      2448      2450      2446      2448      2451      2450      2448      2451
      2448      2451      2453      2448      2451      2457      2453      2451      2457
      2446      2454      2456      2446      2454      2457      2456      2454      2457
      2451      2457      2454      2451      2457      2459      2454      2457      2459
      2463      2461      2464      2463      2461      2465      2463      2461      2466
      2464      2461      2465      2464      2461      2466      2465      2461      2466
      2461      2466      2468      2461      2466      2474      2468      2466      2474
      2466      2468      2470      2466      2468      2471      2470      2468      2471
      2468      2471      2473      2468      2471      2477      2473      2471      2477
      2466      2474      2476      2466      2474      2477      2476      2474      2477
      2471      2477      2474      2471      2477      2479      2474      2477      2479
      2483      2481      2484      2483      2481      2485      2483      2481      2486
      2484      2481      2485      2484      2481      2486      2485      2481      2486
      2481      2486      2488      2481      2486      2494      2488      2486      2494
      2486      2488      2490      2486      2488      2491      2490      2488      2491
      2488      2491      2493      2488      2491      2497      2493      2491      2497
      2486      2494      2496      2486      2494      2497      2496      2494      2497
      2491      2497      2494      2491      2497      2499      2494      2497      2499
      2503      2501      2504      2503      2501      2505      2503      2501      2506
      2504      2501      2505      2504      2501      2506      2505      2501      2506
      2501      2506      2508      2501      2506      2514      2508      2506      2514
      2506      2508      2510      2506      2508      2511      2510      2508      2511
      2508      2511      2513      2508      2511      2517      2513      2511      2517
      2506      2514      2516      2506      2514      2517      2516      2514      2517
      2511      2517      2514      2511      2517      2519      2514      2517      2519
      2523      2521      2524      2523      2521      2525      2523      2521      2526
      2524      2521      2525      2524      2521      2526      2525      2521      2526
      2521      2526      2528      2521      2526      2534      2528      2526      2534
      2526      2528      2530      2526      2528      2531      2530      2528      2531
      2528      2531      2533      2528      2531      2537      2533      2531      2537
      2526      2534      2536      2526      2534      2537      2536      2534      2537
      2531      2537      2534      2531      2537      2539      2534      2537      2539
      2543      2541      2544      2543      2541      2545      2543      2541      2546
      2544      2541      2545      2544      2541      2546      2545      2541      2546
      2541      2546      2548      2541      2546      2554      2548      2546      2554
      2546      2548      2550      2546      2548      2551      2550      2548      2551
      2548      2551      2553      2548      2551      2557      2553      2551      2557
      2546      2554      2556      2546      2554      2557      2556      2554      2557
      2551      2557      2554      2551      2557      2559      2554      2557      2559
      2563      2561      2564      2563      2561      2565      2563      2561      2566
      2564      2561      2565      2564      2561      2566      2565      2561      2566
      2561      2566      2568      2561      2566      2574      2568      2566      2574
      2566      2568      2570      2566      2568      2571      2570      2568      2571
      2568      2571      2573      2568      2571      2577      2573      2571      2577
      2566      2574      2576      2566      2574      2577      2576      2574      2577
      2571      2577      2574      2571      2577      2579      2574      2577      2579
      2583      2581      2584      2583      2581      2585      2583      2581      2586
      2584      2581      2585      2584      2581      2586      2585      2581      2586
      2581      2586      2588      2581      2586      2594      2588      2586      2594
      2586      2588      2590      2586      2588      2591      2590      2588      2591
      2588      2591      2593      2588      2591      2597      2593      2591      2597
      2586      2594      2596      2586      2594      2597      2596      2594      2597
      2591      2597      2594      2591      2597      2599      2594      2597      2599
      2603      2601      2604      2603      2601      2605      2603      2601      2606
      2604      2601      2605      2604      2601      2606      2605      2601      2606
      2601      2606      2608      2601      2606      2614      2608      2606      2614
      2606      2608      2610      2606      2608      2611      2610      2608      2611
      2608      2611      2613      2608      2611      2617      2613      2611      2617
      2606      2614      2616      2606      2614      2617      2616      2614      2617
      2611      2617      2614      2611      2617      2619      2614      2617      2619
      2623      2621      2624      2623      2621      2625      2623      2621      2626
      2624      2621      2625      2624      2621      2626      2625      2621      2626
      2621      2626      2628      2621      2626      2634      2628      2626      2634
      2626      2628      2630      2626      2628      2631      2630      2628      2631
      2628      2631      2633      2628      2631      2637      2633      2631      2637
      2626      2634      2636      2626      2634      2637      2636      2634      2637
      2631      2637      2634      2631      2637      2639      2634      2637      2639
      2643      2641      2644      2643      2641      2645      2643      2641      2646
      2644      2641      2645      2644      2641      2646      2645      2641      2646
      2641      2646      2648      2641      2646      2654      2648      2646      2654
      2646      2648      2650      2646      2648      2651      2650      2648      2651
      2648      2651      2653      2648      2651      2657      2653      2651      2657
      2646      2654      2656      2646      2654      2657      2656      2654      2657
      2651      2657      2654      2651      2657      2659      2654      2657      2659
      2663      2661      2664      2663      2661      2665      2663      2661      2666
      2664      2661      2665      2664      2661      2666      2665      2661      2666
      2661      2666      2668      2661      2666      2674      2668      2666      2674
      2666      2668      2670      2666      2668      2671      2670      2668      2671
      2668      2671      2673      2668      2671      2677      2673      2671      2677
      2666      2674      2676      2666      2674      2677      2676      2674      2677
      2671      2677      2674      2671      2677      2679      2674      2677      2679
      2683      2681      2684      2683      2681      2685      2683      2681      2686
      2684      2681      2685      2684      2681      2686      2685      2681      2686
      2681      2686      2688      2681      2686      2694      2688      2686      2694
      2686      2688      2690      2686      2688      2691      2690      2688      2691
      2688      2691      2693      2688      2691      2697      2693      2691      2697
      2686      2694      2696      2686      2694      2697      2696      2694      2697
      2691      2697      2694      2691      2697      2699      2694      2697      2699
      2703      2701      2713      2703      2701      2714      2703      2701      2715
      2713      2701      2714      2713      2701      2715      2714      2701      2715
      2701      2703      2705      2701      2703      2716      2701      2703      2717
      2705      2703      2716      2705      2703      2717      2716      2703      2717
      2703      2705      2707      2703      2705      2718      2703      2705      2719
      2707      2705      2718      2707      2705      2719      2718      2705      2719
      2705      2707      2709      2705      2707      2711      2709      2707      2711
      2707      2709      2721      2707      2711      2720      2728      2726      2738
      2728      2726      2739      2728      2726      2740      2738      2726      2739
      2738      2726      2740      2739      2726      2740      2726      2728      2730
      2726      2728      2741      2726      2728      2742      2730      2728      2741
      2730      2728      2742      2741      2728      2742      2728      2730      2732
      2728      2730      2743      2728      2730      2744      2732      2730      2743
      2732      2730      2744      2743      2730      2744      2730      2732      2734
      2730      2732      2736      2734      2732      2736      2732      2734      2746
      2732      2736      2745      2753      2751      2763      2753      2751      2764
      2753      2751      2765      2763      2751      2764      2763      2751      2765
      2764      2751      2765      2751      2753      2755      2751      2753      2766
      2751      2753      2767      2755      2753      2766      2755      2753      2767
      2766      2753      2767      2753      2755      2757      2753      2755      2768
      2753      2755      2769      2757      2755      2768      2757      2755      2769
      2768      2755      2769      2755      2757      2759      2755      2757      2761
      2759      2757      2761      2757      2759      2771      2757      2761      2770
      2778      2776      2788      2778      2776      2789      2778      2776      2790
      2788      2776      2789      2788      2776      2790      2789      2776      2790
      2776      2778      2780      2776      2778      2791      2776      2778      2792
      2780      2778      2791      2780      2778      2792      2791      2778      2792
      2778      2780      2782      2778      2780      2793      2778      2780      2794
      2782      2780      2793      2782      2780      2794      2793      2780      2794
      2780      2782      2784      2780      2782      2786      2784      2782      2786
      2782      2784      2796      2782      2786      2795      2803      2801      2813
      2803      2801      2814      2803      2801      2815      2813      2801      2814
      2813      2801      2815      2814      2801      2815      2801      2803      2805
      2801      2803      2816      2801      2803      2817      2805      2803      2816
      2805      2803      2817      2816      2803      2817      2803      2805      2807
      2803      2805      2818      2803      2805      2819      2807      2805      2818
      2807      2805      2819      2818      2805      2819      2805      2807      2809
      2805      2807      2811      2809      2807      2811      2807      2809      2821
      2807      2811      2820      2828      2826      2838      2828      2826      2839
      2828      2826      2840      2838      2826      2839      2838      2826      2840
      2839      2826      2840      2826      2828      2830      2826      2828      2841
      2826      2828      2842      2830      2828      2841      2830      2828      2842
      2841      2828      2842      2828      2830      2832      2828      2830      2843
      2828      2830      2844      2832      2830      2843      2832      2830      2844
      2843      2830      2844      2830      2832      2834      2830      2832      2836
      2834      2832      2836      2832      2834      2846      2832      2836      2845
      2853      2851      2863      2853      2851      2864      2853      2851      2865
      2863      2851      2864      2863      2851      2865      2864      2851      2865
      2851      2853      2855      2851      2853      2866      2851      2853      2867
      2855      2853      2866      2855      2853      2867      2866      2853      2867
      2853      2855      2857      2853      2855      2868      2853      2855      2869
      2857      2855      2868      2857      2855      2869      2868      2855      2869
      2855      2857      2859      2855      2857      2861      2859      2857      2861
      2857      2859      2871      2857      2861      2870      2878      2876      2888
      2878      2876      2889      2878      2876      2890      2888      2876      2889
      2888      2876      2890      2889      2876      2890      2876      2878      2880
      2876      2878      2891      2876      2878      2892      2880      2878      2891
      2880      2878      2892      2891      2878      2892      2878      2880      2882
      2878      2880      2893      2878      2880      2894      2882      2880      2893
      2882      2880      2894      2893      2880      2894      2880      2882      2884
      2880      2882      2886      2884      2882      2886      2882      2884      2896
      2882      2886      2895      2903      2901      2913      2903      2901      2914
      2903      2901      2915      2913      2901      2914      2913      2901      2915
      2914      2901      2915      2901      2903      2905      2901      2903      2916
      2901      2903      2917      2905      2903      2916      2905      2903      2917
      2916      2903      2917      2903      2905      2907      2903      2905      2918
      2903      2905      2919      2907      2905      2918      2907      2905      2919
      2918      2905      2919      2905      2907      2909      2905      2907      2911
      2909      2907      2911      2907      2909      2921      2907      2911      2920
      2928      2926      2938      2928      2926      2939      2928      2926      2940
      2938      2926      2939      2938      2926      2940      2939      2926      2940
      2926      2928      2930      2926      2928      2941      2926      2928      2942
      2930      2928      2941      2930      2928      2942      2941      2928      2942
      2928      2930      2932      2928      2930      2943      2928      2930      2944
      2932      2930      2943      2932      2930      2944      2943      2930      2944
      2930      2932      2934      2930      2932      2936      2934      2932      2936
      2932      2934      2946      2932      2936      2945      2953      2951      2963
      2953      2951      2964      2953      2951      2965      2963      2951      2964
      2963      2951      2965      2964      2951      2965      2951      2953      2955
      2951      2953      2966      2951      2953      2967      2955      2953      2966
      2955      2953      2967      2966      2953      2967      2953      2955      2957
      2953      2955      2968      2953      2955      2969      2957      2955      2968
      2957      2955      2969      2968      2955      2969      2955      2957      2959
      2955      2957      2961      2959      2957      2961      2957      2959      2971
      2957      2961      2970      2978      2976      2988      2978      2976      2989
      2978      2976      2990      2988      2976      2989      2988      2976      2990
      2989      2976      2990      2976      2978      2980      2976      2978      2991
      2976      2978      2992      2980      2978      2991      2980      2978      2992
      2991      2978      2992      2978      2980      2982      2978      2980      2993
      2978      2980      2994      2982      2980      2993      2982      2980      2994
      2993      2980      2994      2980      2982      2984      2980      2982      2986
      2984      2982      2986      2982      2984      2996      2982      2986      2995
      3003      3001      3013      3003      3001      3014      3003      3001      3015
      3013      3001      3014      3013      3001      3015      3014      3001      3015
      3001      3003      3005      3001      3003      3016      3001      3003      3017
      3005      3003      3016      3005      3003      3017      3016      3003      3017
      3003      3005      3007      3003      3005      3018      3003      3005      3019
      3007      3005      3018      3007      3005      3019      3018      3005      3019
      3005      3007      3009      3005      3007      3011      3009      3007      3011
      3007      3009      3021      3007      3011      3020      3028      3026      3038
      3028      3026      3039      3028      3026      3040      3038      3026      3039
      3038      3026      3040      3039      3026      3040      3026      3028      3030
      3026      3028      3041      3026      3028      3042      3030      3028      3041
      3030      3028      3042      3041      3028      3042      3028      3030      3032
      3028      3030      3043      3028      3030      3044      3032      3030      3043
      3032      3030      3044      3043      3030      3044      3030      3032      3034
      3030      3032      3036      3034      3032      3036      3032      3034      3046
      3032      3036      3045      3053      3051      3063      3053      3051      3064
      3053      3051      3065      3063      3051      3064      3063      3051      3065
      3064      3051      3065      3051      3053      3055      3051      3053      3066
      3051      3053      3067      3055      3053      3066      3055      3053      3067
      3066      3053      3067      3053      3055      3057      3053      3055      3068
      3053      3055      3069      3057      3055      3068      3057      3055      3069
      3068      3055      3069      3055      3057      3059      3055      3057      3061
      3059      3057      3061      3057      3059      3071      3057      3061      3070
      3078      3076      3088      3078      3076      3089      3078      3076      3090
      3088      3076      3089      3088      3076      3090      3089      3076      3090
      3076      3078      3080      3076      3078      3091      3076      3078      3092
      3080      3078      3091      3080      3078      3092      3091      3078      3092
      3078      3080      3082      3078      3080      3093      3078      3080      3094
      3082      3080      3093      3082      3080      3094      3093      3080      3094
      3080      3082      3084      3080      3082      3086      3084      3082      3086
      3082      3084      3096      3082      3086      3095      3103      3101      3113
      3103      3101      3114      3103      3101      3115      3113      3101      3114
      3113      3101      3115      3114      3101      3115      3101      3103      3105
      3101      3103      3116      3101      3103      3117      3105      3103      3116
      3105      3103      3117      3116      3103      3117      3103      3105      3107
      3103      3105      3118      3103      3105      3119      3107      3105      3118
      3107      3105      3119      3118      3105      3119      3105      3107      3109
      3105      3107      3111      3109      3107      3111      3107      3109      3121
      3107      3111      3120      3128      3126      3138      3128      3126      3139
      3128      3126      3140      3138      3126      3139      3138      3126      3140
      3139      3126      3140      3126      3128      3130      3126      3128      3141
      3126      3128      3142      3130      3128      3141      3130      3128      3142
      3141      3128      3142      3128      3130      3132      3128      3130      3143
      3128      3130      3144      3132      3130      3143      3132      3130      3144
      3143      3130      3144      3130      3132      3134      3130      3132      3136
      3134      3132      3136      3132      3134      3146      3132      3136      3145
      3153      3151      3163      3153      3151      3164      3153      3151      3165
      3163      3151      3164      3163      3151      3165      3164      3151      3165
      3151      3153      3155      3151      3153      3166      3151      3153      3167
      3155      3153      3166      3155      3153      3167      3166      3153      3167
      3153      3155      3157      3153      3155      3168      3153      3155      3169
      3157      3155      3168      3157      3155      3169      3168      3155      3169
      3155      3157      3159      3155      3157      3161      3159      3157      3161
      3157      3159      3171      3157      3161      3170      3178      3176      3188
      3178      3176      3189      3178      3176      3190      3188      3176      3189
      3188      3176      3190      3189      3176      3190      3176      3178      3180
      3176      3178      3191      3176      3178      3192      3180      3178      3191
      3180      3178      3192      3191      3178      3192      3178      3180      3182
      3178      3180      3193      3178      3180      3194      3182      3180      3193
      3182      3180      3194      3193      3180      3194      3180      3182      3184
      3180      3182      3186      3184      3182      3186      3182      3184      3196
      3182      3186      3195      3203      3201      3213      3203      3201      3214
      3203      3201      3215      3213      3201      3214      3213      3201      3215
      3214      3201      3215      3201      3203      3205      3201      3203      3216
      3201      3203      3217      3205      3203      3216      3205      3203      3217
      3216      3203      3217      3203      3205      3207      3203      3205      3218
      3203      3205      3219      3207      3205      3218      3207      3205      3219
      3218      3205      3219      3205      3207      3209      3205      3207      3211
      3209      3207      3211      3207      3209      3221      3207      3211      3220
      3228      3226      3238      3228      3226      3239      3228      3226      3240
      3238      3226      3239      3238      3226      3240      3239      3226      3240
      3226      3228      3230      3226      3228      3241      3226      3228      3242
      3230      3228      3241      3230      3228      3242      3241      3228      3242
      3228      3230      3232      3228      3230      3243      3228      3230      3244
      3232      3230      3243      3232      3230      3244      3243      3230      3244
      3230      3232      3234      3230      3232      3236      3234      3232      3236
      3232      3234      3246      3232      3236      3245      3253      3251      3263
      3253      3251      3264      3253      3251      3265      3263      3251      3264
      3263      3251      3265      3264      3251      3265      3251      3253      3255
      3251      3253      3266      3251      3253      3267      3255      3253      3266
      3255      3253      3267      3266      3253      3267      3253      3255      3257
      3253      3255      3268      3253      3255      3269      3257      3255      3268
      3257      3255      3269      3268      3255      3269      3255      3257      3259
      3255      3257      3261      3259      3257      3261      3257      3259      3271
      3257      3261      3270      3278      3276      3288      3278      3276      3289
      3278      3276      3290      3288      3276      3289      3288      3276      3290
      3289      3276      3290      3276      3278      3280      3276      3278      3291
      3276      3278      3292      3280      3278      3291      3280      3278      3292
      3291      3278      3292      3278      3280      3282      3278      3280      3293
      3278      3280      3294      3282      3280      3293      3282      3280      3294
      3293      3280      3294      3280      3282      3284      3280      3282      3286
      3284      3282      3286      3282      3284      3296      3282      3286      3295
      3303      3301      3313      3303      3301      3314      3303      3301      3315
      3313      3301      3314      3313      3301      3315      3314      3301      3315
      3301      3303      3305      3301      3303      3316      3301      3303      3317
      3305      3303      3316      3305      3303      3317      3316      3303      3317
      3303      3305      3307      3303      3305      3318      3303      3305      3319
      3307      3305      3318      3307      3305      3319      3318      3305      3319
      3305      3307      3309      3305      3307      3311      3309      3307      3311
      3307      3309      3321      3307      3311      3320      3328      3326      3338
      3328      3326      3339      3328      3326      3340      3338      3326      3339
      3338      3326      3340      3339      3326      3340      3326      3328      3330
      3326      3328      3341      3326      3328      3342      3330      3328      3341
      3330      3328      3342      3341      3328      3342      3328      3330      3332
      3328      3330      3343      3328      3330      3344      3332      3330      3343
      3332      3330      3344      3343      3330      3344      3330      3332      3334
      3330      3332      3336      3334      3332      3336      3332      3334      3346
      3332      3336      3345      3353      3351      3363      3353      3351      3364
      3353      3351      3365      3363      3351      3364      3363      3351      3365
      3364      3351      3365      3351      3353      3355      3351      3353      3366
      3351      3353      3367      3355      3353      3366      3355      3353      3367
      3366      3353      3367      3353      3355      3357      3353      3355      3368
      3353      3355      3369      3357      3355      3368      3357      3355      3369
      3368      3355      3369      3355      3357      3359      3355      3357      3361
      3359      3357      3361      3357      3359      3371      3357      3361      3370
      3378      3376      3388      3378      3376      3389      3378      3376      3390
      3388      3376      3389      3388      3376      3390      3389      3376      3390
      3376      3378      3380      3376      3378      3391      3376      3378      3392
      3380      3378      3391      3380      3378      3392      3391      3378      3392
      3378      3380      3382      3378      3380      3393      3378      3380      3394
      3382      3380      3393      3382      3380      3394      3393      3380      3394
      3380      3382      3384      3380      3382      3386      3384      3382      3386
      3382      3384      3396      3382      3386      3395      3403      3401      3413
      3403      3401      3414      3403      3401      3415      3413      3401      3414
      3413      3401      3415      3414      3401      3415      3401      3403      3405
      3401      3403      3416      3401      3403      3417      3405      3403      3416
      3405      3403      3417      3416      3403      3417      3403      3405      3407
      3403      3405      3418      3403      3405      3419      3407      3405      3418
      3407      3405      3419      3418      3405      3419      3405      3407      3409
      3405      3407      3411      3409      3407      3411      3407      3409      3421
      3407      3411      3420      3428      3426      3438      3428      3426      3439
      3428      3426      3440      3438      3426      3439      3438      3426      3440
      3439      3426      3440      3426      3428      3430      3426      3428      3441
      3426      3428      3442      3430      3428      3441      3430      3428      3442
      3441      3428      3442      3428      3430      3432      3428      3430      3443
      3428      3430      3444      3432      3430      3443      3432      3430      3444
      3443      3430      3444      3430      3432      3434      3430      3432      3436
      3434      3432      3436      3432      3434      3446      3432      3436      3445
      3453      3451      3463      3453      3451      3464      3453      3451      3465
      3463      3451      3464      3463      3451      3465      3464      3451      3465
      3451      3453      3455      3451      3453      3466      3451      3453      3467
      3455      3453      3466      3455      3453      3467      3466      3453      3467
      3453      3455      3457      3453      3455      3468      3453      3455      3469
      3457      3455      3468      3457      3455      3469      3468      3455      3469
      3455      3457      3459      3455      3457      3461      3459      3457      3461
      3457      3459      3471      3457      3461      3470      3478      3476      3488
      3478      3476      3489      3478      3476      3490      3488      3476      3489
      3488      3476      3490      3489      3476      3490      3476      3478      3480
      3476      3478      3491      3476      3478      3492      3480      3478      3491
      3480      3478      3492      3491      3478      3492      3478      3480      3482
      3478      3480      3493      3478      3480      3494      3482      3480      3493
      3482      3480      3494      3493      3480      3494      3480      3482      3484
      3480      3482      3486      3484      3482      3486      3482      3484      3496
      3482      3486      3495      3503      3501      3513      3503      3501      3514
      3503      3501      3515      3513      3501      3514      3513      3501      3515
      3514      3501      3515      3501      3503      3505      3501      3503      3516
      3501      3503      3517      3505      3503      3516      3505      3503      3517
      3516      3503      3517      3503      3505      3507      3503      3505      3518
      3503      3505      3519      3507      3505      3518      3507      3505      3519
      3518      3505      3519      3505      3507      3509      3505      3507      3511
      3509      3507      3511      3507      3509      3521      3507      3511      3520
      3528      3526      3538      3528      3526      3539      3528      3526      3540
      3538      3526      3539      3538      3526      3540      3539      3526      3540
      3526      3528      3530      3526      3528      3541      3526      3528      3542
      3530      3528      3541      3530      3528      3542      3541      3528      3542
      3528      3530      3532      3528      3530      3543      3528      3530      3544
      3532      3530      3543      3532      3530      3544      3543      3530      3544
      3530      3532      3534      3530      3532      3536      3534      3532      3536
      3532      3534      3546      3532      3536      3545      3553      3551      3563
      3553      3551      3564      3553      3551      3565      3563      3551      3564
      3563      3551      3565      3564      3551      3565      3551      3553      3555
      3551      3553      3566      3551      3553      3567      3555      3553      3566
      3555      3553      3567      3566      3553      3567      3553      3555      3557
      3553      3555      3568      3553      3555      3569      3557      3555      3568
      3557      3555      3569      3568      3555      3569      3555      3557      3559
      3555      3557      3561      3559      3557      3561      3557      3559      3571
      3557      3561      3570      3578      3576      3588      3578      3576      3589
      3578      3576      3590      3588      3576      3589      3588      3576      3590
      3589      3576      3590      3576      3578      3580      3576      3578      3591
      3576      3578      3592      3580      3578      3591      3580      3578      3592
      3591      3578      3592      3578      3580      3582      3578      3580      3593
      3578      3580      3594      3582      3580      3593      3582      3580      3594
      3593      3580      3594      3580      3582      3584      3580      3582      3586
      3584      3582      3586      3582      3584      3596      3582      3586      3595
      3603      3601      3613      3603      3601      3614      3603      3601      3615
      3613      3601      3614      3613      3601      3615      3614      3601      3615
      3601      3603      3605      3601      3603      3616      3601      3603      3617
      3605      3603      3616      3605      3603      3617      3616      3603      3617
      3603      3605      3607      3603      3605      3618      3603      3605      3619
      3607      3605      3618      3607      3605      3619      3618      3605      3619
      3605      3607      3609      3605      3607      3611      3609      3607      3611
      3607      3609      3621      3607      3611      3620      3628      3626      3638
      3628      3626      3639      3628      3626      3640      3638      3626      3639
      3638      3626      3640      3639      3626      3640      3626      3628      3630
      3626      3628      3641      3626      3628      3642      3630      3628      3641
      3630      3628      3642      3641      3628      3642      3628      3630      3632
      3628      3630      3643      3628      3630      3644      3632      3630      3643
      3632      3630      3644      3643      3630      3644      3630      3632      3634
      3630      3632      3636      3634      3632      3636      3632      3634      3646
      3632      3636      3645      3653      3651      3663      3653      3651      3664
      3653      3651      3665      3663      3651      3664      3663      3651      3665
      3664      3651      3665      3651      3653      3655      3651      3653      3666
      3651      3653      3667      3655      3653      3666      3655      3653      3667
      3666      3653      3667      3653      3655      3657      3653      3655      3668
      3653      3655      3669      3657      3655      3668      3657      3655      3669
      3668      3655      3669      3655      3657      3659      3655      3657      3661
      3659      3657      3661      3657      3659      3671      3657      3661      3670
      3678      3676      3688      3678      3676      3689      3678      3676      3690
      3688      3676      3689      3688      3676      3690      3689      3676      3690
      3676      3678      3680      3676      3678      3691      3676      3678      3692
      3680      3678      3691      3680      3678      3692      3691      3678      3692
      3678      3680      3682      3678      3680      3693      3678      3680      3694
      3682      3680      3693      3682      3680      3694      3693      3680      3694
      3680      3682      3684      3680      3682      3686      3684      3682      3686
      3682      3684      3696      3682      3686      3695      3703      3701      3713
      3703      3701      3714      3703      3701      3715      3713      3701      3714
      3713      3701      3715      3714      3701      3715      3701      3703      3705
      3701      3703      3716      3701      3703      3717      3705      3703      3716
      3705      3703      3717      3716      3703      3717      3703      3705      3707
      3703      3705      3718      3703      3705      3719      3707      3705      3718
      3707      3705      3719      3718      3705      3719      3705      3707      3709
      3705      3707      3711      3709      3707      3711      3707      3709      3721
      3707      3711      3720      3728      3726      3738      3728      3726      3739
      3728      3726      3740      3738      3726      3739      3738      3726      3740
      3739      3726      3740      3726      3728      3730      3726      3728      3741
      3726      3728      3742      3730      3728      3741      3730      3728      3742
      3741      3728      3742      3728      3730      3732      3728      3730      3743
      3728      3730      3744      3732      3730      3743      3732      3730      3744
      3743      3730      3744      3730      3732      3734      3730      3732      3736
      3734      3732      3736      3732      3734      3746      3732      3736      3745
      3753      3751      3763      3753      3751      3764      3753      3751      3765
      3763      3751      3764      3763      3751      3765      3764      3751      3765
      3751      3753      3755      3751      3753      3766      3751      3753      3767
      3755      3753      3766      3755      3753      3767      3766      3753      3767
      3753      3755      3757      3753      3755      3768      3753      3755      3769
      3757      3755      3768      3757      3755      3769      3768      3755      3769
      3755      3757      3759      3755      3757      3761      3759      3757      3761
      3757      3759      3771      3757      3761      3770      3778      3776      3788
      3778      3776      3789      3778      3776      3790      3788      3776      3789
      3788      3776      3790      3789      3776      3790      3776      3778      3780
      3776      3778      3791      3776      3778      3792      3780      3778      3791
      3780      3778      3792      3791      3778      3792      3778      3780      3782
      3778      3780      3793      3778      3780      3794      3782      3780      3793
      3782      3780      3794      3793      3780      3794      3780      3782      3784
      3780      3782      3786      3784      3782      3786      3782      3784      3796
      3782      3786      3795      3803      3801      3813      3803      3801      3814
      3803      3801      3815      3813      3801      3814      3813      3801      3815
      3814      3801      3815      3801      3803      3805      3801      3803      3816
      3801      3803      3817      3805      3803      3816      3805      3803      3817
      3816      3803      3817      3803      3805      3807      3803      3805      3818
      3803      3805      3819      3807      3805      3818      3807      3805      3819
      3818      3805      3819      3805      3807      3809      3805      3807      3811
      3809      3807      3811      3807      3809      3821      3807      3811      3820
      3828      3826      3838      3828      3826      3839      3828      3826      3840
      3838      3826      3839      3838      3826      3840      3839      3826      3840
      3826      3828      3830      3826      3828      3841      3826      3828      3842
      3830      3828      3841      3830      3828      3842      3841      3828      3842
      3828      3830      3832      3828      3830      3843      3828      3830      3844
      3832      3830      3843      3832      3830      3844      3843      3830      3844
      3830      3832      3834      3830      3832      3836      3834      3832      3836
      3832      3834      3846      3832      3836      3845      3853      3851      3863
      3853      3851      3864      3853      3851      3865      3863      3851      3864
      3863      3851      3865      3864      3851      3865      3851      3853      3855
      3851      3853      3866      3851      3853      3867      3855      3853      3866
      3855      3853      3867      3866      3853      3867      3853      3855      3857
      3853      3855      3868      3853      3855      3869      3857      3855      3868
      3857      3855      3869      3868      3855      3869      3855      3857      3859
      3855      3857      3861      3859      3857      3861      3857      3859      3871
      3857      3861      3870      3878      3876      3888      3878      3876      3889
      3878      3876      3890      3888      3876      3889      3888      3876      3890
      3889      3876      3890      3876      3878      3880      3876      3878      3891
      3876      3878      3892      3880      3878      3891      3880      3878      3892
      3891      3878      3892      3878      3880      3882      3878      3880      3893
      3878      3880      3894      3882      3880      3893      3882      3880      3894
      3893      3880      3894      3880      3882      3884      3880      3882      3886
      3884      3882      3886      3882      3884      3896      3882      3886      3895
      3903      3901      3913      3903      3901      3914      3903      3901      3915
      3913      3901      3914      3913      3901      3915      3914      3901      3915
      3901      3903      3905      3901      3903      3916      3901      3903      3917
      3905      3903      3916      3905      3903      3917      3916      3903      3917
      3903      3905      3907      3903      3905      3918      3903      3905      3919
      3907      3905      3918      3907      3905      3919      3918      3905      3919
      3905      3907      3909      3905      3907      3911      3909      3907      3911
      3907      3909      3921      3907      3911      3920      3928      3926      3938
      3928      3926      3939      3928      3926      3940      3938      3926      3939
      3938      3926      3940      3939      3926      3940      3926      3928      3930
      3926      3928      3941      3926      3928      3942      3930      3928      3941
      3930      3928      3942      3941      3928      3942      3928      3930      3932
      3928      3930      3943      3928      3930      3944      3932      3930      3943
      3932      3930      3944      3943      3930      3944      3930      3932      3934
      3930      3932      3936      3934      3932      3936      3932      3934      3946
      3932      3936      3945      3953      3951      3963      3953      3951      3964
      3953      3951      3965      3963      3951      3964      3963      3951      3965
      3964      3951      3965      3951      3953      3955      3951      3953      3966
      3951      3953      3967      3955      3953      3966      3955      3953      3967
      3966      3953      3967      3953      3955      3957      3953      3955      3968
      3953      3955      3969      3957      3955      3968      3957      3955      3969
      3968      3955      3969      3955      3957      3959      3955      3957      3961
      3959      3957      3961      3957      3959      3971      3957      3961      3970
      3978      3976      3988      3978      3976      3989      3978      3976      3990
      3988      3976      3989      3988      3976      3990      3989      3976      3990
      3976      3978      3980      3976      3978      3991      3976      3978      3992
      3980      3978      3991      3980      3978      3992      3991      3978      3992
      3978      3980      3982      3978      3980      3993      3978      3980      3994
      3982      3980      3993      3982      3980      3994      3993      3980      3994
      3980      3982      3984      3980      3982      3986      3984      3982      3986
      3982      3984      3996      3982      3986      3995      4003      4001      4013
      4003      4001      4014      4003      4001      4015      4013      4001      4014
      4013      4001      4015      4014      4001      4015      4001      4003      4005
      4001      4003      4016      4001      4003      4017      4005      4003      4016
      4005      4003      4017      4016      4003      4017      4003      4005      4007
      4003      4005      4018      4003      4005      4019      4007      4005      4018
      4007      4005      4019      4018      4005      4019      4005      4007      4009
      4005      4007      4011      4009      4007      4011      4007      4009      4021
      4007      4011      4020      4028      4026      4038      4028      4026      4039
      4028      4026      4040      4038      4026      4039      4038      4026      4040
      4039      4026      4040      4026      4028      4030      4026      4028      4041
      4026      4028      4042      4030      4028      4041      4030      4028      4042
      4041      4028      4042      4028      4030      4032      4028      4030      4043
      4028      4030      4044      4032      4030      4043      4032      4030      4044
      4043      4030      4044      4030      4032      4034      4030      4032      4036
      4034      4032      4036      4032      4034      4046      4032      4036      4045
      4053      4051      4063      4053      4051      4064      4053      4051      4065
      4063      4051      4064      4063      4051      4065      4064      4051      4065
      4051      4053      4055      4051      4053      4066      4051      4053      4067
      4055      4053      4066      4055      4053      4067      4066      4053      4067
      4053      4055      4057      4053      4055      4068      4053      4055      4069
      4057      4055      4068      4057      4055      4069      4068      4055      4069
      4055      4057      4059      4055      4057      4061      4059      4057      4061
      4057      4059      4071      4057      4061      4070      4078      4076      4088
      4078      4076      4089      4078      4076      4090      4088      4076      4089
      4088      4076      4090      4089      4076      4090      4076      4078      4080
      4076      4078      4091      4076      4078      4092      4080      4078      4091
      4080      4078      4092      4091      4078      4092      4078      4080      4082
      4078      4080      4093      4078      4080      4094      4082      4080      4093
      4082      4080      4094      4093      4080      4094      4080      4082      4084
      4080      4082      4086      4084      4082      4086      4082      4084      4096
      4082      4086      4095      4103      4101      4113      4103      4101      4114
      4103      4101      4115      4113      4101      4114      4113      4101      4115
      4114      4101      4115      4101      4103      4105      4101      4103      4116
      4101      4103      4117      4105      4103      4116      4105      4103      4117
      4116      4103      4117      4103      4105      4107      4103      4105      4118
      4103      4105      4119      4107      4105      4118      4107      4105      4119
      4118      4105      4119      4105      4107      4109      4105      4107      4111
      4109      4107      4111      4107      4109      4121      4107      4111      4120
      4128      4126      4138      4128      4126      4139      4128      4126      4140
      4138      4126      4139      4138      4126      4140      4139      4126      4140
      4126      4128      4130      4126      4128      4141      4126      4128      4142
      4130      4128      4141      4130      4128      4142      4141      4128      4142
      4128      4130      4132      4128      4130      4143      4128      4130      4144
      4132      4130      4143      4132      4130      4144      4143      4130      4144
      4130      4132      4134      4130      4132      4136      4134      4132      4136
      4132      4134      4146      4132      4136      4145      4153      4151      4163
      4153      4151      4164      4153      4151      4165      4163      4151      4164
      4163      4151      4165      4164      4151      4165      4151      4153      4155
      4151      4153      4166      4151      4153      4167      4155      4153      4166
      4155      4153      4167      4166      4153      4167      4153      4155      4157
      4153      4155      4168      4153      4155      4169      4157      4155      4168
      4157      4155      4169      4168      4155      4169      4155      4157      4159
      4155      4157      4161      4159      4157      4161      4157      4159      4171
      4157      4161      4170      4178      4176      4188      4178      4176      4189
      4178      4176      4190      4188      4176      4189      4188      4176      4190
      4189      4176      4190      4176      4178      4180      4176      4178      4191
      4176      4178      4192      4180      4178      4191      4180      4178      4192
      4191      4178      4192      4178      4180      4182      4178      4180      4193
      4178      4180      4194      4182      4180      4193      4182      4180      4194
      4193      4180      4194      4180      4182      4184      4180      4182      4186
      4184      4182      4186      4182      4184      4196      4182      4186      4195
      4203      4201      4213      4203      4201      4214      4203      4201      4215
      4213      4201      4214      4213      4201      4215      4214      4201      4215
      4201      4203      4205      4201      4203      4216      4201      4203      4217
      4205      4203      4216      4205      4203      4217      4216      4203      4217
      4203      4205      4207      4203      4205      4218      4203      4205      4219
      4207      4205      4218      4207      4205      4219      4218      4205      4219
      4205      4207      4209      4205      4207      4211      4209      4207      4211
      4207      4209      4221      4207      4211      4220      4228      4226      4238
      4228      4226      4239      4228      4226      4240      4238      4226      4239
      4238      4226      4240      4239      4226      4240      4226      4228      4230
      4226      4228      4241      4226      4228      4242      4230      4228      4241
      4230      4228      4242      4241      4228      4242      4228      4230      4232
      4228      4230      4243      4228      4230      4244      4232      4230      4243
      4232      4230      4244      4243      4230      4244      4230      4232      4234
      4230      4232      4236      4234      4232      4236      4232      4234      4246
      4232      4236      4245      4253      4251      4263      4253      4251      4264
      4253      4251      4265      4263      4251      4264      4263      4251      4265
      4264      4251      4265      4251      4253      4255      4251      4253      4266
      4251      4253      4267      4255      4253      4266      4255      4253      4267
      4266      4253      4267      4253      4255      4257      4253      4255      4268
      4253      4255      4269      4257      4255      4268      4257      4255      4269
      4268      4255      4269      4255      4257      4259      4255      4257      4261
      4259      4257      4261      4257      4259      4271      4257      4261      4270
      4278      4276      4288      4278      4276      4289      4278      4276      4290
      4288      4276      4289      4288      4276      4290      4289      4276      4290
      4276      4278      4280      4276      4278      4291      4276      4278      4292
      4280      4278      4291      4280      4278      4292      4291      4278      4292
      4278      4280      4282      4278      4280      4293      4278      4280      4294
      4282      4280      4293      4282      4280      4294      4293      4280      4294
      4280      4282      4284      4280      4282      4286      4284      4282      4286
      4282      4284      4296      4282      4286      4295      4303      4301      4313
      4303      4301      4314      4303      4301      4315      4313      4301      4314
      4313      4301      4315      4314      4301      4315      4301      4303      4305
      4301      4303      4316      4301      4303      4317      4305      4303      4316
      4305      4303      4317      4316      4303      4317      4303      4305      4307
      4303      4305      4318      4303      4305      4319      4307      4305      4318
      4307      4305      4319      4318      4305      4319      4305      4307      4309
      4305      4307      4311      4309      4307      4311      4307      4309      4321
      4307      4311      4320      4328      4326      4338      4328      4326      4339
      4328      4326      4340      4338      4326      4339      4338      4326      4340
      4339      4326      4340      4326      4328      4330      4326      4328      4341
      4326      4328      4342      4330      4328      4341      4330      4328      4342
      4341      4328      4342      4328      4330      4332      4328      4330      4343
      4328      4330      4344      4332      4330      4343      4332      4330      4344
      4343      4330      4344      4330      4332      4334      4330      4332      4336
      4334      4332      4336      4332      4334      4346      4332      4336      4345
      4353      4351      4363      4353      4351      4364      4353      4351      4365
      4363      4351      4364      4363      4351      4365      4364      4351      4365
      4351      4353      4355      4351      4353      4366      4351      4353      4367
      4355      4353      4366      4355      4353      4367      4366      4353      4367
      4353      4355      4357      4353      4355      4368      4353      4355      4369
      4357      4355      4368      4357      4355      4369      4368      4355      4369
      4355      4357      4359      4355      4357      4361      4359      4357      4361
      4357      4359      4371      4357      4361      4370      4378      4376      4388
      4378      4376      4389      4378      4376      4390      4388      4376      4389
      4388      4376      4390      4389      4376      4390      4376      4378      4380
      4376      4378      4391      4376      4378      4392      4380      4378      4391
      4380      4378      4392      4391      4378      4392      4378      4380      4382
      4378      4380      4393      4378      4380      4394      4382      4380      4393
      4382      4380      4394      4393      4380      4394      4380      4382      4384
      4380      4382      4386      4384      4382      4386      4382      4384      4396
      4382      4386      4395      4403      4401      4413      4403      4401      4414
      4403      4401      4415      4413      4401      4414      4413      4401      4415
      4414      4401      4415      4401      4403      4405      4401      4403      4416
      4401      4403      4417      4405      4403      4416      4405      4403      4417
      4416      4403      4417      4403      4405      4407      4403      4405      4418
      4403      4405      4419      4407      4405      4418      4407      4405      4419
      4418      4405      4419      4405      4407      4409      4405      4407      4411
      4409      4407      4411      4407      4409      4421      4407      4411      4420
      4428      4426      4438      4428      4426      4439      4428      4426      4440
      4438      4426      4439      4438      4426      4440      4439      4426      4440
      4426      4428      4430      4426      4428      4441      4426      4428      4442
      4430      4428      4441      4430      4428      4442      4441      4428      4442
      4428      4430      4432      4428      4430      4443      4428      4430      4444
      4432      4430      4443      4432      4430      4444      4443      4430      4444
      4430      4432      4434      4430      4432      4436      4434      4432      4436
      4432      4434      4446      4432      4436      4445      4453      4451      4463
      4453      4451      4464      4453      4451      4465      4463      4451      4464
      4463      4451      4465      4464      4451      4465      4451      4453      4455
      4451      4453      4466      4451      4453      4467      4455      4453      4466
      4455      4453      4467      4466      4453      4467      4453      4455      4457
      4453      4455      4468      4453      4455      4469      4457      4455      4468
      4457      4455      4469      4468      4455      4469      4455      4457      4459
      4455      4457      4461      4459      4457      4461      4457      4459      4471
      4457      4461      4470      4478      4476      4488      4478      4476      4489
      4478      4476      4490      4488      4476      4489      4488      4476      4490
      4489      4476      4490      4476      4478      4480      4476      4478      4491
      4476      4478      4492      4480      4478      4491      4480      4478      4492
      4491      4478      4492      4478      4480      4482      4478      4480      4493
      4478      4480      4494      4482      4480      4493      4482      4480      4494
      4493      4480      4494      4480      4482      4484      4480      4482      4486
      4484      4482      4486      4482      4484      4496      4482      4486      4495
      4503      4501      4513      4503      4501      4514      4503      4501      4515
      4513      4501      4514      4513      4501      4515      4514      4501      4515
      4501      4503      4505      4501      4503      4516      4501      4503      4517
      4505      4503      4516      4505      4503      4517      4516      4503      4517
      4503      4505      4507      4503      4505      4518      4503      4505      4519
      4507      4505      4518      4507      4505      4519      4518      4505      4519
      4505      4507      4509      4505      4507      4511      4509      4507      4511
      4507      4509      4521      4507      4511      4520      4528      4526      4538
      4528      4526      4539      4528      4526      4540      4538      4526      4539
      4538      4526      4540      4539      4526      4540      4526      4528      4530
      4526      4528      4541      4526      4528      4542      4530      4528      4541
      4530      4528      4542      4541      4528      4542      4528      4530      4532
      4528      4530      4543      4528      4530      4544      4532      4530      4543
      4532      4530      4544      4543      4530      4544      4530      4532      4534
      4530      4532      4536      4534      4532      4536      4532      4534      4546
      4532      4536      4545      4553      4551      4563      4553      4551      4564
      4553      4551      4565      4563      4551      4564      4563      4551      4565
      4564      4551      4565      4551      4553      4555      4551      4553      4566
      4551      4553      4567      4555      4553      4566      4555      4553      4567
      4566      4553      4567      4553      4555      4557      4553      4555      4568
      4553      4555      4569      4557      4555      4568      4557      4555      4569
      4568      4555      4569      4555      4557      4559      4555      4557      4561
      4559      4557      4561      4557      4559      4571      4557      4561      4570
      4578      4576      4588      4578      4576      4589      4578      4576      4590
      4588      4576      4589      4588      4576      4590      4589      4576      4590
      4576      4578      4580      4576      4578      4591      4576      4578      4592
      4580      4578      4591      4580      4578      4592      4591      4578      4592
      4578      4580      4582      4578      4580      4593      4578      4580      4594
      4582      4580      4593      4582      4580      4594      4593      4580      4594
      4580      4582      4584      4580      4582      4586      4584      4582      4586
      4582      4584      4596      4582      4586      4595      4603      4601      4613
      4603      4601      4614      4603      4601      4615      4613      4601      4614
      4613      4601      4615      4614      4601      4615      4601      4603      4605
      4601      4603      4616      4601      4603      4617      4605      4603      4616
      4605      4603      4617      4616      4603      4617      4603      4605      4607
      4603      4605      4618      4603      4605      4619      4607      4605      4618
      4607      4605      4619      4618      4605      4619      4605      4607      4609
      4605      4607      4611      4609      4607      4611      4607      4609      4621
      4607      4611      4620      4628      4626      4638      4628      4626      4639
      4628      4626      4640      4638      4626      4639      4638      4626      4640
      4639      4626      4640      4626      4628      4630      4626      4628      4641
      4626      4628      4642      4630      4628      4641      4630      4628      4642
      4641      4628      4642      4628      4630      4632      4628      4630      4643
      4628      4630      4644      4632      4630      4643      4632      4630      4644
      4643      4630      4644      4630      4632      4634      4630      4632      4636
      4634      4632      4636      4632      4634      4646      4632      4636      4645
      4653      4651      4663      4653      4651      4664      4653      4651      4665
      4663      4651      4664      4663      4651      4665      4664      4651      4665
      4651      4653      4655      4651      4653      4666      4651      4653      4667
      4655      4653      4666      4655      4653      4667      4666      4653      4667
      4653      4655      4657      4653      4655      4668      4653      4655      4669
      4657      4655      4668      4657      4655      4669      4668      4655      4669
      4655      4657      4659      4655      4657      4661      4659      4657      4661
      4657      4659      4671      4657      4661      4670      4678      4676      4688
      4678      4676      4689      4678      4676      4690      4688      4676      4689
      4688      4676      4690      4689      4676      4690      4676      4678      4680
      4676      4678      4691      4676      4678      4692      4680      4678      4691
      4680      4678      4692      4691      4678      4692      4678      4680      4682
      4678      4680      4693      4678      4680      4694      4682      4680      4693
      4682      4680      4694      4693      4680      4694      4680      4682      4684
      4680      4682      4686      4684      4682      4686      4682      4684      4696
      4682      4686      4695      4703      4701      4713      4703      4701      4714
      4703      4701      4715      4713      4701      4714      4713      4701      4715
      4714      4701      4715      4701      4703      4705      4701      4703      4716
      4701      4703      4717      4705      4703      4716      4705      4703      4717
      4716      4703      4717      4703      4705      4707      4703      4705      4718
      4703      4705      4719      4707      4705      4718      4707      4705      4719
      4718      4705      4719      4705      4707      4709      4705      4707      4711
      4709      4707      4711      4707      4709      4721      4707      4711      4720
      4728      4726      4738      4728      4726      4739      4728      4726      4740
      4738      4726      4739      4738      4726      4740      4739      4726      4740
      4726      4728      4730      4726      4728      4741      4726      4728      4742
      4730      4728      4741      4730      4728      4742      4741      4728      4742
      4728      4730      4732      4728      4730      4743      4728      4730      4744
      4732      4730      4743      4732      4730      4744      4743      4730      4744
      4730      4732      4734      4730      4732      4736      4734      4732      4736
      4732      4734      4746      4732      4736      4745      4753      4751      4763
      4753      4751      4764      4753      4751      4765      4763      4751      4764
      4763      4751      4765      4764      4751      4765      4751      4753      4755
      4751      4753      4766      4751      4753      4767      4755      4753      4766
      4755      4753      4767      4766      4753      4767      4753      4755      4757
      4753      4755      4768      4753      4755      4769      4757      4755      4768
      4757      4755      4769      4768      4755      4769      4755      4757      4759
      4755      4757      4761      4759      4757      4761      4757      4759      4771
      4757      4761      4770      4778      4776      4788      4778      4776      4789
      4778      4776      4790      4788      4776      4789      4788      4776      4790
      4789      4776      4790      4776      4778      4780      4776      4778      4791
      4776      4778      4792      4780      4778      4791      4780      4778      4792
      4791      4778      4792      4778      4780      4782      4778      4780      4793
      4778      4780      4794      4782      4780      4793      4782      4780      4794
      4793      4780      4794      4780      4782      4784      4780      4782      4786
      4784      4782      4786      4782      4784      4796      4782      4786      4795
      4803      4801      4813      4803      4801      4814      4803      4801      4815
      4813      4801      4814      4813      4801      4815      4814      4801      4815
      4801      4803      4805      4801      4803      4816      4801      4803      4817
      4805      4803      4816      4805      4803      4817      4816      4803      4817
      4803      4805      4807      4803      4805      4818      4803      4805      4819
      4807      4805      4818      4807      4805      4819      4818      4805      4819
      4805      4807      4809      4805      4807      4811      4809      4807      4811
      4807      4809      4821      4807      4811      4820      4828      4826      4838
      4828      4826      4839      4828      4826      4840      4838      4826      4839
      4838      4826      4840      4839      4826      4840      4826      4828      4830
      4826      4828      4841      4826      4828      4842      4830      4828      4841
      4830      4828      4842      4841      4828      4842      4828      4830      4832
      4828      4830      4843      4828      4830      4844      4832      4830      4843
      4832      4830      4844      4843      4830      4844      4830      4832      4834
      4830      4832      4836      4834      4832      4836      4832      4834      4846
      4832      4836      4845      4853      4851      4863      4853      4851      4864
      4853      4851      4865      4863      4851      4864      4863      4851      4865
      4864      4851      4865      4851      4853      4855      4851      4853      4866
      4851      4853      4867      4855      4853      4866      4855      4853      4867
      4866      4853      4867      4853      4855      4857      4853      4855      4868
      4853      4855      4869      4857      4855      4868      4857      4855      4869
      4868      4855      4869      4855      4857      4859      4855      4857      4861
      4859      4857      4861      4857      4859      4871      4857      4861      4870
      4878      4876      4888      4878      4876      4889      4878      4876      4890
      4888      4876      4889      4888      4876      4890      4889      4876      4890
      4876      4878      4880      4876      4878      4891      4876      4878      4892
      4880      4878      4891      4880      4878      4892      4891      4878      4892
      4878      4880      4882      4878      4880      4893      4878      4880      4894
      4882      4880      4893      4882      4880      4894      4893      4880      4894
      4880      4882      4884      4880      4882      4886      4884      4882      4886
      4882      4884      4896      4882      4886      4895      4903      4901      4913
      4903      4901      4914      4903      4901      4915      4913      4901      4914
      4913      4901      4915      4914      4901      4915      4901      4903      4905
      4901      4903      4916      4901      4903      4917      4905      4903      4916
      4905      4903      4917      4916      4903      4917      4903      4905      4907
      4903      4905      4918      4903      4905      4919      4907      4905      4918
      4907      4905      4919      4918      4905      4919      4905      4907      4909
      4905      4907      4911      4909      4907      4911      4907      4909      4921
      4907      4911      4920      4928      4926      4938      4928      4926      4939
      4928      4926      4940      4938      4926      4939      4938      4926      4940
      4939      4926      4940      4926      4928      4930      4926      4928      4941
      4926      4928      4942      4930      4928      4941      4930      4928      4942
      4941      4928      4942      4928      4930      4932      4928      4930      4943
      4928      4930      4944      4932      4930      4943      4932      4930      4944
      4943      4930      4944      4930      4932      4934      4930      4932      4936
      4934      4932      4936      4932      4934      4946      4932      4936      4945
      4953      4951      4963      4953      4951      4964      4953      4951      4965
      4963      4951      4964      4963      4951      4965      4964      4951      4965
      4951      4953      4955      4951      4953      4966      4951      4953      4967
      4955      4953      4966      4955      4953      4967      4966      4953      4967
      4953      4955      4957      4953      4955      4968      4953      4955      4969
      4957      4955      4968      4957      4955      4969      4968      4955      4969
      4955      4957      4959      4955      4957      4961      4959      4957      4961
      4957      4959      4971      4957      4961      4970      4978      4976      4988
      4978      4976      4989      4978      4976      4990      4988      4976      4989
      4988      4976      4990      4989      4976      4990      4976      4978      4980
      4976      4978      4991      4976      4978      4992      4980      4978      4991
      4980      4978      4992      4991      4978      4992      4978      4980      4982
      4978      4980      4993      4978      4980      4994      4982      4980      4993
      4982      4980      4994      4993      4980      4994      4980      4982      4984
      4980      4982      4986      4984      4982      4986      4982      4984      4996
      4982      4986      4995      5003      5001      5013      5003      5001      5014
      5003      5001      5015      5013      5001      5014      5013      5001      5015
      5014      5001      5015      5001      5003      5005      5001      5003      5016
      5001      5003      5017      5005      5003      5016      5005      5003      5017
      5016      5003      5017      5003      5005      5007      5003      5005      5018
      5003      5005      5019      5007      5005      5018      5007      5005      5019
      5018      5005      5019      5005      5007      5009      5005      5007      5011
      5009      5007      5011      5007      5009      5021      5007      5011      5020
      5028      5026      5038      5028      5026      5039      5028      5026      5040
      5038      5026      5039      5038      5026      5040      5039      5026      5040
      5026      5028      5030      5026      5028      5041      5026      5028      5042
      5030      5028      5041      5030      5028      5042      5041      5028      5042
      5028      5030      5032      5028      5030      5043      5028      5030      5044
      5032      5030      5043      5032      5030      5044      5043      5030      5044
      5030      5032      5034      5030      5032      5036      5034      5032      5036
      5032      5034      5046      5032      5036      5045      5053      5051      5063
      5053      5051      5064      5053      5051      5065      5063      5051      5064
      5063      5051      5065      5064      5051      5065      5051      5053      5055
      5051      5053      5066      5051      5053      5067      5055      5053      5066
      5055      5053      5067      5066      5053      5067      5053      5055      5057
      5053      5055      5068      5053      5055      5069      5057      5055      5068
      5057      5055      5069      5068      5055      5069      5055      5057      5059
      5055      5057      5061      5059      5057      5061      5057      5059      5071
      5057      5061      5070      5078      5076      5088      5078      5076      5089
      5078      5076      5090      5088      5076      5089      5088      5076      5090
      5089      5076      5090      5076      5078      5080      5076      5078      5091
      5076      5078      5092      5080      5078      5091      5080      5078      5092
      5091      5078      5092      5078      5080      5082      5078      5080      5093
      5078      5080      5094      5082      5080      5093      5082      5080      5094
      5093      5080      5094      5080      5082      5084      5080      5082      5086
      5084      5082      5086      5082      5084      5096      5082      5086      5095
      5103      5101      5113      5103      5101      5114      5103      5101      5115
      5113      5101      5114      5113      5101      5115      5114      5101      5115
      5101      5103      5105      5101      5103      5116      5101      5103      5117
      5105      5103      5116      5105      5103      5117      5116      5103      5117
      5103      5105      5107      5103      5105      5118      5103      5105      5119
      5107      5105      5118      5107      5105      5119      5118      5105      5119
      5105      5107      5109      5105      5107      5111      5109      5107      5111
      5107      5109      5121      5107      5111      5120      5128      5126      5138
      5128      5126      5139      5128      5126      5140      5138      5126      5139
      5138      5126      5140      5139      5126      5140      5126      5128      5130
      5126      5128      5141      5126      5128      5142      5130      5128      5141
      5130      5128      5142      5141      5128      5142      5128      5130      5132
      5128      5130      5143      5128      5130      5144      5132      5130      5143
      5132      5130      5144      5143      5130      5144      5130      5132      5134
      5130      5132      5136      5134      5132      5136      5132      5134      5146
      5132      5136      5145      5153      5151      5163      5153      5151      5164
      5153      5151      5165      5163      5151      5164      5163      5151      5165
      5164      5151      5165      5151      5153      5155      5151      5153      5166
      5151      5153      5167      5155      5153      5166      5155      5153      5167
      5166      5153      5167      5153      5155      5157      5153      5155      5168
      5153      5155      5169      5157      5155      5168      5157      5155      5169
      5168      5155      5169      5155      5157      5159      5155      5157      5161
      5159      5157      5161      5157      5159      5171      5157      5161      5170
      5178      5176      5188      5178      5176      5189      5178      5176      5190
      5188      5176      5189      5188      5176      5190      5189      5176      5190
      5176      5178      5180      5176      5178      5191      5176      5178      5192
      5180      5178      5191      5180      5178      5192      5191      5178      5192
      5178      5180      5182      5178      5180      5193      5178      5180      5194
      5182      5180      5193      5182      5180      5194      5193      5180      5194
      5180      5182      5184      5180      5182      5186      5184      5182      5186
      5182      5184      5196      5182      5186      5195      5203      5201      5213
      5203      5201      5214      5203      5201      5215      5213      5201      5214
      5213      5201      5215      5214      5201      5215      5201      5203      5205
      5201      5203      5216      5201      5203      5217      5205      5203      5216
      5205      5203      5217      5216      5203      5217      5203      5205      5207
      5203      5205      5218      5203      5205      5219      5207      5205      5218
      5207      5205      5219      5218      5205      5219      5205      5207      5209
      5205      5207      5211      5209      5207      5211      5207      5209      5221
      5207      5211      5220      5228      5226      5238      5228      5226      5239
      5228      5226      5240      5238      5226      5239      5238      5226      5240
      5239      5226      5240      5226      5228      5230      5226      5228      5241
      5226      5228      5242      5230      5228      5241      5230      5228      5242
      5241      5228      5242      5228      5230      5232      5228      5230      5243
      5228      5230      5244      5232      5230      5243      5232      5230      5244
      5243      5230      5244      5230      5232      5234      5230      5232      5236
      5234      5232      5236      5232      5234      5246      5232      5236      5245
      5253      5251      5263      5253      5251      5264      5253      5251      5265
      5263      5251      5264      5263      5251      5265      5264      5251      5265
      5251      5253      5255      5251      5253      5266      5251      5253      5267
      5255      5253      5266      5255      5253      5267      5266      5253      5267
      5253      5255      5257      5253      5255      5268      5253      5255      5269
      5257      5255      5268      5257      5255      5269      5268      5255      5269
      5255      5257      5259      5255      5257      5261      5259      5257      5261
      5257      5259      5271      5257      5261      5270      5278      5276      5288
      5278      5276      5289      5278      5276      5290      5288      5276      5289
      5288      5276      5290      5289      5276      5290      5276      5278      5280
      5276      5278      5291      5276      5278      5292      5280      5278      5291
      5280      5278      5292      5291      5278      5292      5278      5280      5282
      5278      5280      5293      5278      5280      5294      5282      5280      5293
      5282      5280      5294      5293      5280      5294      5280      5282      5284
      5280      5282      5286      5284      5282      5286      5282      5284      5296
      5282      5286      5295      5303      5301      5313      5303      5301      5314
      5303      5301      5315      5313      5301      5314      5313      5301      5315
      5314      5301      5315      5301      5303      5305      5301      5303      5316
      5301      5303      5317      5305      5303      5316      5305      5303      5317
      5316      5303      5317      5303      5305      5307      5303      5305      5318
      5303      5305      5319      5307      5305      5318      5307      5305      5319
      5318      5305      5319      5305      5307      5309      5305      5307      5311
      5309      5307      5311      5307      5309      5321      5307      5311      5320
      5328      5326      5338      5328      5326      5339      5328      5326      5340
      5338      5326      5339      5338      5326      5340      5339      5326      5340
      5326      5328      5330      5326      5328      5341      5326      5328      5342
      5330      5328      5341      5330      5328      5342      5341      5328      5342
      5328      5330      5332      5328      5330      5343      5328      5330      5344
      5332      5330      5343      5332      5330      5344      5343      5330      5344
      5330      5332      5334      5330      5332      5336      5334      5332      5336
      5332      5334      5346      5332      5336      5345      5353      5351      5363
      5353      5351      5364      5353      5351      5365      5363      5351      5364
      5363      5351      5365      5364      5351      5365      5351      5353      5355
      5351      5353      5366      5351      5353      5367      5355      5353      5366
      5355      5353      5367      5366      5353      5367      5353      5355      5357
      5353      5355      5368      5353      5355      5369      5357      5355      5368
      5357      5355      5369      5368      5355      5369      5355      5357      5359
      5355      5357      5361      5359      5357      5361      5357      5359      5371
      5357      5361      5370      5378      5376      5388      5378      5376      5389
      5378      5376      5390      5388      5376      5389      5388      5376      5390
      5389      5376      5390      5376      5378      5380      5376      5378      5391
      5376      5378      5392      5380      5378      5391      5380      5378      5392
      5391      5378      5392      5378      5380      5382      5378      5380      5393
      5378      5380      5394      5382      5380      5393      5382      5380      5394
      5393      5380      5394      5380      5382      5384      5380      5382      5386
      5384      5382      5386      5382      5384      5396      5382      5386      5395
      5403      5401      5413      5403      5401      5414      5403      5401      5415
      5413      5401      5414      5413      5401      5415      5414      5401      5415
      5401      5403      5405      5401      5403      5416      5401      5403      5417
      5405      5403      5416      5405      5403      5417      5416      5403      5417
      5403      5405      5407      5403      5405      5418      5403      5405      5419
      5407      5405      5418      5407      5405      5419      5418      5405      5419
      5405      5407      5409      5405      5407      5411      5409      5407      5411
      5407      5409      5421      5407      5411      5420      5428      5426      5438
      5428      5426      5439      5428      5426      5440      5438      5426      5439
      5438      5426      5440      5439      5426      5440      5426      5428      5430
      5426      5428      5441      5426      5428      5442      5430      5428      5441
      5430      5428      5442      5441      5428      5442      5428      5430      5432
      5428      5430      5443      5428      5430      5444      5432      5430      5443
      5432      5430      5444      5443      5430      5444      5430      5432      5434
      5430      5432      5436      5434      5432      5436      5432      5434      5446
      5432      5436      5445      5453      5451      5463      5453      5451      5464
      5453      5451      5465      5463      5451      5464      5463      5451      5465
      5464      5451      5465      5451      5453      5455      5451      5453      5466
      5451      5453      5467      5455      5453      5466      5455      5453      5467
      5466      5453      5467      5453      5455      5457      5453      5455      5468
      5453      5455      5469      5457      5455      5468      5457      5455      5469
      5468      5455      5469      5455      5457      5459      5455      5457      5461
      5459      5457      5461      5457      5459      5471      5457      5461      5470
      5478      5476      5488      5478      5476      5489      5478      5476      5490
      5488      5476      5489      5488      5476      5490      5489      5476      5490
      5476      5478      5480      5476      5478      5491      5476      5478      5492
      5480      5478      5491      5480      5478      5492      5491      5478      5492
      5478      5480      5482      5478      5480      5493      5478      5480      5494
      5482      5480      5493      5482      5480      5494      5493      5480      5494
      5480      5482      5484      5480      5482      5486      5484      5482      5486
      5482      5484      5496      5482      5486      5495      5503      5501      5513
      5503      5501      5514      5503      5501      5515      5513      5501      5514
      5513      5501      5515      5514      5501      5515      5501      5503      5505
      5501      5503      5516      5501      5503      5517      5505      5503      5516
      5505      5503      5517      5516      5503      5517      5503      5505      5507
      5503      5505      5518      5503      5505      5519      5507      5505      5518
      5507      5505      5519      5518      5505      5519      5505      5507      5509
      5505      5507      5511      5509      5507      5511      5507      5509      5521
      5507      5511      5520      5528      5526      5538      5528      5526      5539
      5528      5526      5540      5538      5526      5539      5538      5526      5540
      5539      5526      5540      5526      5528      5530      5526      5528      5541
      5526      5528      5542      5530      5528      5541      5530      5528      5542
      5541      5528      5542      5528      5530      5532      5528      5530      5543
      5528      5530      5544      5532      5530      5543      5532      5530      5544
      5543      5530      5544      5530      5532      5534      5530      5532      5536
      5534      5532      5536      5532      5534      5546      5532      5536      5545
      5553      5551      5563      5553      5551      5564      5553      5551      5565
      5563      5551      5564      5563      5551      5565      5564      5551      5565
      5551      5553      5555      5551      5553      5566      5551      5553      5567
      5555      5553      5566      5555      5553      5567      5566      5553      5567
      5553      5555      5557      5553      5555      5568      5553      5555      5569
      5557      5555      5568      5557      5555      5569      5568      5555      5569
      5555      5557      5559      5555      5557      5561      5559      5557      5561
      5557      5559      5571      5557      5561      5570      5578      5576      5588
      5578      5576      5589      5578      5576      5590      5588      5576      5589
      5588      5576      5590      5589      5576      5590      5576      5578      5580
      5576      5578      5591      5576      5578      5592      5580      5578      5591
      5580      5578      5592      5591      5578      5592      5578      5580      5582
      5578      5580      5593      5578      5580      5594      5582      5580      5593
      5582      5580      5594      5593      5580      5594      5580      5582      5584
      5580      5582      5586      5584      5582      5586      5582      5584      5596
      5582      5586      5595      5603      5601      5613      5603      5601      5614
      5603      5601      5615      5613      5601      5614      5613      5601      5615
      5614      5601      5615      5601      5603      5605      5601      5603      5616
      5601      5603      5617      5605      5603      5616      5605      5603      5617
      5616      5603      5617      5603      5605      5607      5603      5605      5618
      5603      5605      5619      5607      5605      5618      5607      5605      5619
      5618      5605      5619      5605      5607      5609      5605      5607      5611
      5609      5607      5611      5607      5609      5621      5607      5611      5620
      5628      5626      5638      5628      5626      5639      5628      5626      5640
      5638      5626      5639      5638      5626      5640      5639      5626      5640
      5626      5628      5630      5626      5628      5641      5626      5628      5642
      5630      5628      5641      5630      5628      5642      5641      5628      5642
      5628      5630      5632      5628      5630      5643      5628      5630      5644
      5632      5630      5643      5632      5630      5644      5643      5630      5644
      5630      5632      5634      5630      5632      5636      5634      5632      5636
      5632      5634      5646      5632      5636      5645      5653      5651      5663
      5653      5651      5664      5653      5651      5665      5663      5651      5664
      5663      5651      5665      5664      5651      5665      5651      5653      5655
      5651      5653      5666      5651      5653      5667      5655      5653      5666
      5655      5653      5667      5666      5653      5667      5653      5655      5657
      5653      5655      5668      5653      5655      5669      5657      5655      5668
      5657      5655      5669      5668      5655      5669      5655      5657      5659
      5655      5657      5661      5659      5657      5661      5657      5659      5671
      5657      5661      5670      5678      5676      5688      5678      5676      5689
      5678      5676      5690      5688      5676      5689      5688      5676      5690
      5689      5676      5690      5676      5678      5680      5676      5678      5691
      5676      5678      5692      5680      5678      5691      5680      5678      5692
      5691      5678      5692      5678      5680      5682      5678      5680      5693
      5678      5680      5694      5682      5680      5693      5682      5680      5694
      5693      5680      5694      5680      5682      5684      5680      5682      5686
      5684      5682      5686      5682      5684      5696      5682      5686      5695
      5703      5701      5713      5703      5701      5714      5703      5701      5715
      5713      5701      5714      5713      5701      5715      5714      5701      5715
      5701      5703      5705      5701      5703      5716      5701      5703      5717
      5705      5703      5716      5705      5703      5717      5716      5703      5717
      5703      5705      5707      5703      5705      5718      5703      5705      5719
      5707      5705      5718      5707      5705      5719      5718      5705      5719
      5705      5707      5709      5705      5707      5711      5709      5707      5711
      5707      5709      5721      5707      5711      5720      5728      5726      5738
      5728      5726      5739      5728      5726      5740      5738      5726      5739
      5738      5726      5740      5739      5726      5740      5726      5728      5730
      5726      5728      5741      5726      5728      5742      5730      5728      5741
      5730      5728      5742      5741      5728      5742      5728      5730      5732
      5728      5730      5743      5728      5730      5744      5732      5730      5743
      5732      5730      5744      5743      5730      5744      5730      5732      5734
      5730      5732      5736      5734      5732      5736      5732      5734      5746
      5732      5736      5745      5753      5751      5763      5753      5751      5764
      5753      5751      5765      5763      5751      5764      5763      5751      5765
      5764      5751      5765      5751      5753      5755      5751      5753      5766
      5751      5753      5767      5755      5753      5766      5755      5753      5767
      5766      5753      5767      5753      5755      5757      5753      5755      5768
      5753      5755      5769      5757      5755      5768      5757      5755      5769
      5768      5755      5769      5755      5757      5759      5755      5757      5761
      5759      5757      5761      5757      5759      5771      5757      5761      5770
      5778      5776      5788      5778      5776      5789      5778      5776      5790
      5788      5776      5789      5788      5776      5790      5789      5776      5790
      5776      5778      5780      5776      5778      5791      5776      5778      5792
      5780      5778      5791      5780      5778      5792      5791      5778      5792
      5778      5780      5782      5778      5780      5793      5778      5780      5794
      5782      5780      5793      5782      5780      5794      5793      5780      5794
      5780      5782      5784      5780      5782      5786      5784      5782      5786
      5782      5784      5796      5782      5786      5795      5803      5801      5813
      5803      5801      5814      5803      5801      5815      5813      5801      5814
      5813      5801      5815      5814      5801      5815      5801      5803      5805
      5801      5803      5816      5801      5803      5817      5805      5803      5816
      5805      5803      5817      5816      5803      5817      5803      5805      5807
      5803      5805      5818      5803      5805      5819      5807      5805      5818
      5807      5805      5819      5818      5805      5819      5805      5807      5809
      5805      5807      5811      5809      5807      5811      5807      5809      5821
      5807      5811      5820      5828      5826      5838      5828      5826      5839
      5828      5826      5840      5838      5826      5839      5838      5826      5840
      5839      5826      5840      5826      5828      5830      5826      5828      5841
      5826      5828      5842      5830      5828      5841      5830      5828      5842
      5841      5828      5842      5828      5830      5832      5828      5830      5843
      5828      5830      5844      5832      5830      5843      5832      5830      5844
      5843      5830      5844      5830      5832      5834      5830      5832      5836
      5834      5832      5836      5832      5834      5846      5832      5836      5845
      5853      5851      5863      5853      5851      5864      5853      5851      5865
      5863      5851      5864      5863      5851      5865      5864      5851      5865
      5851      5853      5855      5851      5853      5866      5851      5853      5867
      5855      5853      5866      5855      5853      5867      5866      5853      5867
      5853      5855      5857      5853      5855      5868      5853      5855      5869
      5857      5855      5868      5857      5855      5869      5868      5855      5869
      5855      5857      5859      5855      5857      5861      5859      5857      5861
      5857      5859      5871      5857      5861      5870      5878      5876      5888
      5878      5876      5889      5878      5876      5890      5888      5876      5889
      5888      5876      5890      5889      5876      5890      5876      5878      5880
      5876      5878      5891      5876      5878      5892      5880      5878      5891
      5880      5878      5892      5891      5878      5892      5878      5880      5882
      5878      5880      5893      5878      5880      5894      5882      5880      5893
      5882      5880      5894      5893      5880      5894      5880      5882      5884
      5880      5882      5886      5884      5882      5886      5882      5884      5896
      5882      5886      5895      5903      5901      5913      5903      5901      5914
      5903      5901      5915      5913      5901      5914      5913      5901      5915
      5914      5901      5915      5901      5903      5905      5901      5903      5916
      5901      5903      5917      5905      5903      5916      5905      5903      5917
      5916      5903      5917      5903      5905      5907      5903      5905      5918
      5903      5905      5919      5907      5905      5918      5907      5905      5919
      5918      5905      5919      5905      5907      5909      5905      5907      5911
      5909      5907      5911      5907      5909      5921      5907      5911      5920
      5928      5926      5938      5928      5926      5939      5928      5926      5940
      5938      5926      5939      5938      5926      5940      5939      5926      5940
      5926      5928      5930      5926      5928      5941      5926      5928      5942
      5930      5928      5941      5930      5928      5942      5941      5928      5942
      5928      5930      5932      5928      5930      5943      5928      5930      5944
      5932      5930      5943      5932      5930      5944      5943      5930      5944
      5930      5932      5934      5930      5932      5936      5934      5932      5936
      5932      5934      5946      5932      5936      5945      5953      5951      5963
      5953      5951      5964      5953      5951      5965      5963      5951      5964
      5963      5951      5965      5964      5951      5965      5951      5953      5955
      5951      5953      5966      5951      5953      5967      5955      5953      5966
      5955      5953      5967      5966      5953      5967      5953      5955      5957
      5953      5955      5968      5953      5955      5969      5957      5955      5968
      5957      5955      5969      5968      5955      5969      5955      5957      5959
      5955      5957      5961      5959      5957      5961      5957      5959      5971
      5957      5961      5970      5978      5976      5988      5978      5976      5989
      5978      5976      5990      5988      5976      5989      5988      5976      5990
      5989      5976      5990      5976      5978      5980      5976      5978      5991
      5976      5978      5992      5980      5978      5991      5980      5978      5992
      5991      5978      5992      5978      5980      5982      5978      5980      5993
      5978      5980      5994      5982      5980      5993      5982      5980      5994
      5993      5980      5994      5980      5982      5984      5980      5982      5986
      5984      5982      5986      5982      5984      5996      5982      5986      5995
      6003      6001      6013      6003      6001      6014      6003      6001      6015
      6013      6001      6014      6013      6001      6015      6014      6001      6015
      6001      6003      6005      6001      6003      6016      6001      6003      6017
      6005      6003      6016      6005      6003      6017      6016      6003      6017
      6003      6005      6007      6003      6005      6018      6003      6005      6019
      6007      6005      6018      6007      6005      6019      6018      6005      6019
      6005      6007      6009      6005      6007      6011      6009      6007      6011
      6007      6009      6021      6007      6011      6020      6028      6026      6038
      6028      6026      6039      6028      6026      6040      6038      6026      6039
      6038      6026      6040      6039      6026      6040      6026      6028      6030
      6026      6028      6041      6026      6028      6042      6030      6028      6041
      6030      6028      6042      6041      6028      6042      6028      6030      6032
      6028      6030      6043      6028      6030      6044      6032      6030      6043
      6032      6030      6044      6043      6030      6044      6030      6032      6034
      6030      6032      6036      6034      6032      6036      6032      6034      6046
      6032      6036      6045      6053      6051      6063      6053      6051      6064
      6053      6051      6065      6063      6051      6064      6063      6051      6065
      6064      6051      6065      6051      6053      6055      6051      6053      6066
      6051      6053      6067      6055      6053      6066      6055      6053      6067
      6066      6053      6067      6053      6055      6057      6053      6055      6068
      6053      6055      6069      6057      6055      6068      6057      6055      6069
      6068      6055      6069      6055      6057      6059      6055      6057      6061
      6059      6057      6061      6057      6059      6071      6057      6061      6070
      6078      6076      6079      6078      6076      6080      6078      6076      6081
      6079      6076      6080      6079      6076      6081      6080      6076      6081
      6076      6081      6083      6076      6081      6089      6083      6081      6089
      6081      6083      6085      6081      6083      6086      6085      6083      6086
      6083      6086      6088      6083      6086      6092      6088      6086      6092
      6081      6089      6091      6081      6089      6092      6091      6089      6092
      6086      6092      6089      6086      6092      6094      6089      6092      6094
      6098      6096      6099      6098      6096      6100      6098      6096      6101
      6099      6096      6100      6099      6096      6101      6100      6096      6101
      6096      6101      6103      6096      6101      6109      6103      6101      6109
      6101      6103      6105      6101      6103      6106      6105      6103      6106
      6103      6106      6108      6103      6106      6112      6108      6106      6112
      6101      6109      6111      6101      6109      6112      6111      6109      6112
      6106      6112      6109      6106      6112      6114      6109      6112      6114
      6118      6116      6119      6118      6116      6120      6118      6116      6121
      6119      6116      6120      6119      6116      6121      6120      6116      6121
      6116      6121      6123      6116      6121      6129      6123      6121      6129
      6121      6123      6125      6121      6123      6126      6125      6123      6126
      6123      6126      6128      6123      6126      6132      6128      6126      6132
      6121      6129      6131      6121      6129      6132      6131      6129      6132
      6126      6132      6129      6126      6132      6134      6129      6132      6134
      6138      6136      6139      6138      6136      6140      6138      6136      6141
      6139      6136      6140      6139      6136      6141      6140      6136      6141
      6136      6141      6143      6136      6141      6149      6143      6141      6149
      6141      6143      6145      6141      6143      6146      6145      6143      6146
      6143      6146      6148      6143      6146      6152      6148      6146      6152
      6141      6149      6151      6141      6149      6152      6151      6149      6152
      6146      6152      6149      6146      6152      6154      6149      6152      6154
      6158      6156      6159      6158      6156      6160      6158      6156      6161
      6159      6156      6160      6159      6156      6161      6160      6156      6161
      6156      6161      6163      6156      6161      6169      6163      6161      6169
      6161      6163      6165      6161      6163      6166      6165      6163      6166
      6163      6166      6168      6163      6166      6172      6168      6166      6172
      6161      6169      6171      6161      6169      6172      6171      6169      6172
      6166      6172      6169      6166      6172      6174      6169      6172      6174
      6178      6176      6179      6178      6176      6180      6178      6176      6181
      6179      6176      6180      6179      6176      6181      6180      6176      6181
      6176      6181      6183      6176      6181      6189      6183      6181      6189
      6181      6183      6185      6181      6183      6186      6185      6183      6186
      6183      6186      6188      6183      6186      6192      6188      6186      6192
      6181      6189      6191      6181      6189      6192      6191      6189      6192
      6186      6192      6189      6186      6192      6194      6189      6192      6194
      6198      6196      6199      6198      6196      6200      6198      6196      6201
      6199      6196      6200      6199      6196      6201      6200      6196      6201
      6196      6201      6203      6196      6201      6209      6203      6201      6209
      6201      6203      6205      6201      6203      6206      6205      6203      6206
      6203      6206      6208      6203      6206      6212      6208      6206      6212
      6201      6209      6211      6201      6209      6212      6211      6209      6212
      6206      6212      6209      6206      6212      6214      6209      6212      6214
      6218      6216      6219      6218      6216      6220      6218      6216      6221
      6219      6216      6220      6219      6216      6221      6220      6216      6221
      6216      6221      6223      6216      6221      6229      6223      6221      6229
      6221      6223      6225      6221      6223      6226      6225      6223      6226
      6223      6226      6228      6223      6226      6232      6228      6226      6232
      6221      6229      6231      6221      6229      6232      6231      6229      6232
      6226      6232      6229      6226      6232      6234      6229      6232      6234
      6238      6236      6239      6238      6236      6240      6238      6236      6241
      6239      6236      6240      6239      6236      6241      6240      6236      6241
      6236      6241      6243      6236      6241      6249      6243      6241      6249
      6241      6243      6245      6241      6243      6246      6245      6243      6246
      6243      6246      6248      6243      6246      6252      6248      6246      6252
      6241      6249      6251      6241      6249      6252      6251      6249      6252
      6246      6252      6249      6246      6252      6254      6249      6252      6254
      6258      6256      6259      6258      6256      6260      6258      6256      6261
      6259      6256      6260      6259      6256      6261      6260      6256      6261
      6256      6261      6263      6256      6261      6269      6263      6261      6269
      6261      6263      6265      6261      6263      6266      6265      6263      6266
      6263      6266      6268      6263      6266      6272      6268      6266      6272
      6261      6269      6271      6261      6269      6272      6271      6269      6272
      6266      6272      6269      6266      6272      6274      6269      6272      6274
      6278      6276      6279      6278      6276      6280      6278      6276      6281
      6279      6276      6280      6279      6276      6281      6280      6276      6281
      6276      6281      6283      6276      6281      6289      6283      6281      6289
      6281      6283      6285      6281      6283      6286      6285      6283      6286
      6283      6286      6288      6283      6286      6292      6288      6286      6292
      6281      6289      6291      6281      6289      6292      6291      6289      6292
      6286      6292      6289      6286      6292      6294      6289      6292      6294
      6298      6296      6299      6298      6296      6300      6298      6296      6301
      6299      6296      6300      6299      6296      6301      6300      6296      6301
      6296      6301      6303      6296      6301      6309      6303      6301      6309
      6301      6303      6305      6301      6303      6306      6305      6303      6306
      6303      6306      6308      6303      6306      6312      6308      6306      6312
      6301      6309      6311      6301      6309      6312      6311      6309      6312
      6306      6312      6309      6306      6312      6314      6309      6312      6314
      6318      6316      6319      6318      6316      6320      6318      6316      6321
      6319      6316      6320      6319      6316      6321      6320      6316      6321
      6316      6321      6323      6316      6321      6329      6323      6321      6329
      6321      6323      6325      6321      6323      6326      6325      6323      6326
      6323      6326      6328      6323      6326      6332      6328      6326      6332
      6321      6329      6331      6321      6329      6332      6331      6329      6332
      6326      6332      6329      6326      6332      6334      6329      6332      6334
      6338      6336      6339      6338      6336      6340      6338      6336      6341
      6339      6336      6340      6339      6336      6341      6340      6336      6341
      6336      6341      6343      6336      6341      6349      6343      6341      6349
      6341      6343      6345      6341      6343      6346      6345      6343      6346
      6343      6346      6348      6343      6346      6352      6348      6346      6352
      6341      6349      6351      6341      6349      6352      6351      6349      6352
      6346      6352      6349      6346      6352      6354      6349      6352      6354
      6358      6356      6359      6358      6356      6360      6358      6356      6361
      6359      6356      6360      6359      6356      6361      6360      6356      6361
      6356      6361      6363      6356      6361      6369      6363      6361      6369
      6361      6363      6365      6361      6363      6366      6365      6363      6366
      6363      6366      6368      6363      6366      6372      6368      6366      6372
      6361      6369      6371      6361      6369      6372      6371      6369      6372
      6366      6372      6369      6366      6372      6374      6369      6372      6374
      6378      6376      6379      6378      6376      6380      6378      6376      6381
      6379      6376      6380      6379      6376      6381      6380      6376      6381
      6376      6381      6383      6376      6381      6389      6383      6381      6389
      6381      6383      6385      6381      6383      6386      6385      6383      6386
      6383      6386      6388      6383      6386      6392      6388      6386      6392
      6381      6389      6391      6381      6389      6392      6391      6389      6392
      6386      6392      6389      6386      6392      6394      6389      6392      6394
      6398      6396      6399      6398      6396      6400      6398      6396      6401
      6399      6396      6400      6399      6396      6401      6400      6396      6401
      6396      6401      6403      6396      6401      6409      6403      6401      6409
      6401      6403      6405      6401      6403      6406      6405      6403      6406
      6403      6406      6408      6403      6406      6412      6408      6406      6412
      6401      6409      6411      6401      6409      6412      6411      6409      6412
      6406      6412      6409      6406      6412      6414      6409      6412      6414
      6418      6416      6419      6418      6416      6420      6418      6416      6421
      6419      6416      6420      6419      6416      6421      6420      6416      6421
      6416      6421      6423      6416      6421      6429      6423      6421      6429
      6421      6423      6425      6421      6423      6426      6425      6423      6426
      6423      6426      6428      6423      6426      6432      6428      6426      6432
      6421      6429      6431      6421      6429      6432      6431      6429      6432
      6426      6432      6429      6426      6432      6434      6429      6432      6434
      6438      6436      6439      6438      6436      6440      6438      6436      6441
      6439      6436      6440      6439      6436      6441      6440      6436      6441
      6436      6441      6443      6436      6441      6449      6443      6441      6449
      6441      6443      6445      6441      6443      6446      6445      6443      6446
      6443      6446      6448      6443      6446      6452      6448      6446      6452
      6441      6449      6451      6441      6449      6452      6451      6449      6452
      6446      6452      6449      6446      6452      6454      6449      6452      6454
      6458      6456      6459      6458      6456      6460      6458      6456      6461
      6459      6456      6460      6459      6456      6461      6460      6456      6461
      6456      6461      6463      6456      6461      6469      6463      6461      6469
      6461      6463      6465      6461      6463      6466      6465      6463      6466
      6463      6466      6468      6463      6466      6472      6468      6466      6472
      6461      6469      6471      6461      6469      6472      6471      6469      6472
      6466      6472      6469      6466      6472      6474      6469      6472      6474
      6478      6476      6479      6478      6476      6480      6478      6476      6481
      6479      6476      6480      6479      6476      6481      6480      6476      6481
      6476      6481      6483      6476      6481      6489      6483      6481      6489
      6481      6483      6485      6481      6483      6486      6485      6483      6486
      6483      6486      6488      6483      6486      6492      6488      6486      6492
      6481      6489      6491      6481      6489      6492      6491      6489      6492
      6486      6492      6489      6486      6492      6494      6489      6492      6494
      6498      6496      6499      6498      6496      6500      6498      6496      6501
      6499      6496      6500      6499      6496      6501      6500      6496      6501
      6496      6501      6503      6496      6501      6509      6503      6501      6509
      6501      6503      6505      6501      6503      6506      6505      6503      6506
      6503      6506      6508      6503      6506      6512      6508      6506      6512
      6501      6509      6511      6501      6509      6512      6511      6509      6512
      6506      6512      6509      6506      6512      6514      6509      6512      6514
      6518      6516      6519      6518      6516      6520      6518      6516      6521
      6519      6516      6520      6519      6516      6521      6520      6516      6521
      6516      6521      6523      6516      6521      6529      6523      6521      6529
      6521      6523      6525      6521      6523      6526      6525      6523      6526
      6523      6526      6528      6523      6526      6532      6528      6526      6532
      6521      6529      6531      6521      6529      6532      6531      6529      6532
      6526      6532      6529      6526      6532      6534      6529      6532      6534
      6538      6536      6539      6538      6536      6540      6538      6536      6541
      6539      6536      6540      6539      6536      6541      6540      6536      6541
      6536      6541      6543      6536      6541      6549      6543      6541      6549
      6541      6543      6545      6541      6543      6546      6545      6543      6546
      6543      6546      6548      6543      6546      6552      6548      6546      6552
      6541      6549      6551      6541      6549      6552      6551      6549      6552
      6546      6552      6549      6546      6552      6554      6549      6552      6554
      6558      6556      6559      6558      6556      6560      6558      6556      6561
      6559      6556      6560      6559      6556      6561      6560      6556      6561
      6556      6561      6563      6556      6561      6569      6563      6561      6569
      6561      6563      6565      6561      6563      6566      6565      6563      6566
      6563      6566      6568      6563      6566      6572      6568      6566      6572
      6561      6569      6571      6561      6569      6572      6571      6569      6572
      6566      6572      6569      6566      6572      6574      6569      6572      6574
      6578      6576      6579      6578      6576      6580      6578      6576      6581
      6579      6576      6580      6579      6576      6581      6580      6576      6581
      6576      6581      6583      6576      6581      6589      6583      6581      6589
      6581      6583      6585      6581      6583      6586      6585      6583      6586
      6583      6586      6588      6583      6586      6592      6588      6586      6592
      6581      6589      6591      6581      6589      6592      6591      6589      6592
      6586      6592      6589      6586      6592      6594      6589      6592      6594
      6598      6596      6599      6598      6596      6600      6598      6596      6601
      6599      6596      6600      6599      6596      6601      6600      6596      6601
      6596      6601      6603      6596      6601      6609      6603      6601      6609
      6601      6603      6605      6601      6603      6606      6605      6603      6606
      6603      6606      6608      6603      6606      6612      6608      6606      6612
      6601      6609      6611      6601      6609      6612      6611      6609      6612
      6606      6612      6609      6606      6612      6614      6609      6612      6614
      6618      6616      6619      6618      6616      6620      6618      6616      6621
      6619      6616      6620      6619      6616      6621      6620      6616      6621
      6616      6621      6623      6616      6621      6629      6623      6621      6629
      6621      6623      6625      6621      6623      6626      6625      6623      6626
      6623      6626      6628      6623      6626      6632      6628      6626      6632
      6621      6629      6631      6621      6629      6632      6631      6629      6632
      6626      6632      6629      6626      6632      6634      6629      6632      6634
      6638      6636      6639      6638      6636      6640      6638      6636      6641
      6639      6636      6640      6639      6636      6641      6640      6636      6641
      6636      6641      6643      6636      6641      6649      6643      6641      6649
      6641      6643      6645      6641      6643      6646      6645      6643      6646
      6643      6646      6648      6643      6646      6652      6648      6646      6652
      6641      6649      6651      6641      6649      6652      6651      6649      6652
      6646      6652      6649      6646      6652      6654      6649      6652      6654
      6658      6656      6659      6658      6656      6660      6658      6656      6661
      6659      6656      6660      6659      6656      6661      6660      6656      6661
      6656      6661      6663      6656      6661      6669      6663      6661      6669
      6661      6663      6665      6661      6663      6666      6665      6663      6666
      6663      6666      6668      6663      6666      6672      6668      6666      6672
      6661      6669      6671      6661      6669      6672      6671      6669      6672
      6666      6672      6669      6666      6672      6674      6669      6672      6674
      6678      6676      6679      6678      6676      6680      6678      6676      6681
      6679      6676      6680      6679      6676      6681      6680      6676      6681
      6676      6681      6683      6676      6681      6689      6683      6681      6689
      6681      6683      6685      6681      6683      6686      6685      6683      6686
      6683      6686      6688      6683      6686      6692      6688      6686      6692
      6681      6689      6691      6681      6689      6692      6691      6689      6692
      6686      6692      6689      6686      6692      6694      6689      6692      6694
      6698      6696      6699      6698      6696      6700      6698      6696      6701
      6699      6696      6700      6699      6696      6701      6700      6696      6701
      6696      6701      6703      6696      6701      6709      6703      6701      6709
      6701      6703      6705      6701      6703      6706      6705      6703      6706
      6703      6706      6708      6703      6706      6712      6708      6706      6712
      6701      6709      6711      6701      6709      6712      6711      6709      6712
      6706      6712      6709      6706      6712      6714      6709      6712      6714
      6718      6716      6719      6718      6716      6720      6718      6716      6721
      6719      6716      6720      6719      6716      6721      6720      6716      6721
      6716      6721      6723      6716      6721      6729      6723      6721      6729
      6721      6723      6725      6721      6723      6726      6725      6723      6726
      6723      6726      6728      6723      6726      6732      6728      6726      6732
      6721      6729      6731      6721      6729      6732      6731      6729      6732
      6726      6732      6729      6726      6732      6734      6729      6732      6734
      6738      6736      6739      6738      6736      6740      6738      6736      6741
      6739      6736      6740      6739      6736      6741      6740      6736      6741
      6736      6741      6743      6736      6741      6749      6743      6741      6749
      6741      6743      6745      6741      6743      6746      6745      6743      6746
      6743      6746      6748      6743      6746      6752      6748      6746      6752
      6741      6749      6751      6741      6749      6752      6751      6749      6752
      6746      6752      6749      6746      6752      6754      6749      6752      6754
      6758      6756      6759      6758      6756      6760      6758      6756      6761
      6759      6756      6760      6759      6756      6761      6760      6756      6761
      6756      6761      6763      6756      6761      6769      6763      6761      6769
      6761      6763      6765      6761      6763      6766      6765      6763      6766
      6763      6766      6768      6763      6766      6772      6768      6766      6772
      6761      6769      6771      6761      6769      6772      6771      6769      6772
      6766      6772      6769      6766      6772      6774      6769      6772      6774
      6778      6776      6779      6778      6776      6780      6778      6776      6781
      6779      6776      6780      6779      6776      6781      6780      6776      6781
      6776      6781      6783      6776      6781      6789      6783      6781      6789
      6781      6783      6785      6781      6783      6786      6785      6783      6786
      6783      6786      6788      6783      6786      6792      6788      6786      6792
      6781      6789      6791      6781      6789      6792      6791      6789      6792
      6786      6792      6789      6786      6792      6794      6789      6792      6794
      6798      6796      6799      6798      6796      6800      6798      6796      6801
      6799      6796      6800      6799      6796      6801      6800      6796      6801
      6796      6801      6803      6796      6801      6809      6803      6801      6809
      6801      6803      6805      6801      6803      6806      6805      6803      6806
      6803      6806      6808      6803      6806      6812      6808      6806      6812
      6801      6809      6811      6801      6809      6812      6811      6809      6812
      6806      6812      6809      6806      6812      6814      6809      6812      6814
      6818      6816      6819      6818      6816      6820      6818      6816      6821
      6819      6816      6820      6819      6816      6821      6820      6816      6821
      6816      6821      6823      6816      6821      6829      6823      6821      6829
      6821      6823      6825      6821      6823      6826      6825      6823      6826
      6823      6826      6828      6823      6826      6832      6828      6826      6832
      6821      6829      6831      6821      6829      6832      6831      6829      6832
      6826      6832      6829      6826      6832      6834      6829      6832      6834
      6838      6836      6839      6838      6836      6840      6838      6836      6841
      6839      6836      6840      6839      6836      6841      6840      6836      6841
      6836      6841      6843      6836      6841      6849      6843      6841      6849
      6841      6843      6845      6841      6843      6846      6845      6843      6846
      6843      6846      6848      6843      6846      6852      6848      6846      6852
      6841      6849      6851      6841      6849      6852      6851      6849      6852
      6846      6852      6849      6846      6852      6854      6849      6852      6854
      6858      6856      6859      6858      6856      6860      6858      6856      6861
      6859      6856      6860      6859      6856      6861      6860      6856      6861
      6856      6861      6863      6856      6861      6869      6863      6861      6869
      6861      6863      6865      6861      6863      6866      6865      6863      6866
      6863      6866      6868      6863      6866      6872      6868      6866      6872
      6861      6869      6871      6861      6869      6872      6871      6869      6872
      6866      6872      6869      6866      6872      6874      6869      6872      6874
      6878      6876      6879      6878      6876      6880      6878      6876      6881
      6879      6876      6880      6879      6876      6881      6880      6876      6881
      6876      6881      6883      6876      6881      6889      6883      6881      6889
      6881      6883      6885      6881      6883      6886      6885      6883      6886
      6883      6886      6888      6883      6886      6892      6888      6886      6892
      6881      6889      6891      6881      6889      6892      6891      6889      6892
      6886      6892      6889      6886      6892      6894      6889      6892      6894
      6898      6896      6899      6898      6896      6900      6898      6896      6901
      6899      6896      6900      6899      6896      6901      6900      6896      6901
      6896      6901      6903      6896      6901      6909      6903      6901      6909
      6901      6903      6905      6901      6903      6906      6905      6903      6906
      6903      6906      6908      6903      6906      6912      6908      6906      6912
      6901      6909      6911      6901      6909      6912      6911      6909      6912
      6906      6912      6909      6906      6912      6914      6909      6912      6914
      6918      6916      6919      6918      6916      6920      6918      6916      6921
      6919      6916      6920      6919      6916      6921      6920      6916      6921
      6916      6921      6923      6916      6921      6929      6923      6921      6929
      6921      6923      6925      6921      6923      6926      6925      6923      6926
      6923      6926      6928      6923      6926      6932      6928      6926      6932
      6921      6929      6931      6921      6929      6932      6931      6929      6932
      6926      6932      6929      6926      6932      6934      6929      6932      6934
      6938      6936      6939      6938      6936      6940      6938      6936      6941
      6939      6936      6940      6939      6936      6941      6940      6936      6941
      6936      6941      6943      6936      6941      6949      6943      6941      6949
      6941      6943      6945      6941      6943      6946      6945      6943      6946
      6943      6946      6948      6943      6946      6952      6948      6946      6952
      6941      6949      6951      6941      6949      6952      6951      6949      6952
      6946      6952      6949      6946      6952      6954      6949      6952      6954
      6958      6956      6959      6958      6956      6960      6958      6956      6961
      6959      6956      6960      6959      6956      6961      6960      6956      6961
      6956      6961      6963      6956      6961      6969      6963      6961      6969
      6961      6963      6965      6961      6963      6966      6965      6963      6966
      6963      6966      6968      6963      6966      6972      6968      6966      6972
      6961      6969      6971      6961      6969      6972      6971      6969      6972
      6966      6972      6969      6966      6972      6974      6969      6972      6974
      6978      6976      6979      6978      6976      6980      6978      6976      6981
      6979      6976      6980      6979      6976      6981      6980      6976      6981
      6976      6981      6983      6976      6981      6989      6983      6981      6989
      6981      6983      6985      6981      6983      6986      6985      6983      6986
      6983      6986      6988      6983      6986      6992      6988      6986      6992
      6981      6989      6991      6981      6989      6992      6991      6989      6992
      6986      6992      6989      6986      6992      6994      6989      6992      6994
      6998      6996      6999      6998      6996      7000      6998      6996      7001
      6999      6996      7000      6999      6996      7001      7000      6996      7001
      6996      7001      7003      6996      7001      7009      7003      7001      7009
      7001      7003      7005      7001      7003      7006      7005      7003      7006
      7003      7006      7008      7003      7006      7012      7008      7006      7012
      7001      7009      7011      7001      7009      7012      7011      7009      7012
      7006      7012      7009      7006      7012      7014      7009      7012      7014
      7018      7016      7019      7018      7016      7020      7018      7016      7021
      7019      7016      7020      7019      7016      7021      7020      7016      7021
      7016      7021      7023      7016      7021      7029      7023      7021      7029
      7021      7023      7025      7021      7023      7026      7025      7023      7026
      7023      7026      7028      7023      7026      7032      7028      7026      7032
      7021      7029      7031      7021      7029      7032      7031      7029      7032
      7026      7032      7029      7026      7032      7034      7029      7032      7034
      7038      7036      7039      7038      7036      7040      7038      7036      7041
      7039      7036      7040      7039      7036      7041      7040      7036      7041
      7036      7041      7043      7036      7041      7049      7043      7041      7049
      7041      7043      7045      7041      7043      7046      7045      7043      7046
      7043      7046      7048      7043      7046      7052      7048      7046      7052
      7041      7049      7051      7041      7049      7052      7051      7049      7052
      7046      7052      7049      7046      7052      7054      7049      7052      7054
      7058      7056      7059      7058      7056      7060      7058      7056      7061
      7059      7056      7060      7059      7056      7061      7060      7056      7061
      7056      7061      7063      7056      7061      7069      7063      7061      7069
      7061      7063      7065      7061      7063      7066      7065      7063      7066
      7063      7066      7068      7063      7066      7072      7068      7066      7072
      7061      7069      7071      7061      7069      7072      7071      7069      7072
      7066      7072      7069      7066      7072      7074      7069      7072      7074
      7078      7076      7079      7078      7076      7080      7078      7076      7081
      7079      7076      7080      7079      7076      7081      7080      7076      7081
      7076      7081      7083      7076      7081      7089      7083      7081      7089
      7081      7083      7085      7081      7083      7086      7085      7083      7086
      7083      7086      7088      7083      7086      7092      7088      7086      7092
      7081      7089      7091      7081      7089      7092      7091      7089      7092
      7086      7092      7089      7086      7092      7094      7089      7092      7094
      7098      7096      7099      7098      7096      7100      7098      7096      7101
      7099      7096      7100      7099      7096      7101      7100      7096      7101
      7096      7101      7103      7096      7101      7109      7103      7101      7109
      7101      7103      7105      7101      7103      7106      7105      7103      7106
      7103      7106      7108      7103      7106      7112      7108      7106      7112
      7101      7109      7111      7101      7109      7112      7111      7109      7112
      7106      7112      7109      7106      7112      7114      7109      7112      7114
      7118      7116      7119      7118      7116      7120      7118      7116      7121
      7119      7116      7120      7119      7116      7121      7120      7116      7121
      7116      7121      7123      7116      7121      7129      7123      7121      7129
      7121      7123      7125      7121      7123      7126      7125      7123      7126
      7123      7126      7128      7123      7126      7132      7128      7126      7132
      7121      7129      7131      7121      7129      7132      7131      7129      7132
      7126      7132      7129      7126      7132      7134      7129      7132      7134
      7138      7136      7139      7138      7136      7140      7138      7136      7141
      7139      7136      7140      7139      7136      7141      7140      7136      7141
      7136      7141      7143      7136      7141      7149      7143      7141      7149
      7141      7143      7145      7141      7143      7146      7145      7143      7146
      7143      7146      7148      7143      7146      7152      7148      7146      7152
      7141      7149      7151      7141      7149      7152      7151      7149      7152
      7146      7152      7149      7146      7152      7154      7149      7152      7154
      7158      7156      7159      7158      7156      7160      7158      7156      7161
      7159      7156      7160      7159      7156      7161      7160      7156      7161
      7156      7161      7163      7156      7161      7169      7163      7161      7169
      7161      7163      7165      7161      7163      7166      7165      7163      7166
      7163      7166      7168      7163      7166      7172      7168      7166      7172
      7161      7169      7171      7161      7169      7172      7171      7169      7172
      7166      7172      7169      7166      7172      7174      7169      7172      7174
      7178      7176      7179      7178      7176      7180      7178      7176      7181
      7179      7176      7180      7179      7176      7181      7180      7176      7181
      7176      7181      7183      7176      7181      7189      7183      7181      7189
      7181      7183      7185      7181      7183      7186      7185      7183      7186
      7183      7186      7188      7183      7186      7192      7188      7186      7192
      7181      7189      7191      7181      7189      7192      7191      7189      7192
      7186      7192      7189      7186      7192      7194      7189      7192      7194
      7198      7196      7199      7198      7196      7200      7198      7196      7201
      7199      7196      7200      7199      7196      7201      7200      7196      7201
      7196      7201      7203      7196      7201      7209      7203      7201      7209
      7201      7203      7205      7201      7203      7206      7205      7203      7206
      7203      7206      7208      7203      7206      7212      7208      7206      7212
      7201      7209      7211      7201      7209      7212      7211      7209      7212
      7206      7212      7209      7206      7212      7214      7209      7212      7214
      7218      7216      7219      7218      7216      7220      7218      7216      7221
      7219      7216      7220      7219      7216      7221      7220      7216      7221
      7216      7221      7223      7216      7221      7229      7223      7221      7229
      7221      7223      7225      7221      7223      7226      7225      7223      7226
      7223      7226      7228      7223      7226      7232      7228      7226      7232
      7221      7229      7231      7221      7229      7232      7231      7229      7232
      7226      7232      7229      7226      7232      7234      7229      7232      7234
      7238      7236      7239      7238      7236      7240      7238      7236      7241
      7239      7236      7240      7239      7236      7241      7240      7236      7241
      7236      7241      7243      7236      7241      7249      7243      7241      7249
      7241      7243      7245      7241      7243      7246      7245      7243      7246
      7243      7246      7248      7243      7246      7252      7248      7246      7252
      7241      7249      7251      7241      7249      7252      7251      7249      7252
      7246      7252      7249      7246      7252      7254      7249      7252      7254
      7258      7256      7259      7258      7256      7260      7258      7256      7261
      7259      7256      7260      7259      7256      7261      7260      7256      7261
      7256      7261      7263      7256      7261      7269      7263      7261      7269
      7261      7263      7265      7261      7263      7266      7265      7263      7266
      7263      7266      7268      7263      7266      7272      7268      7266      7272
      7261      7269      7271      7261      7269      7272      7271      7269      7272
      7266      7272      7269      7266      7272      7274      7269      7272      7274
      7278      7276      7279      7278      7276      7280      7278      7276      7281
      7279      7276      7280      7279      7276      7281      7280      7276      7281
      7276      7281      7283      7276      7281      7289      7283      7281      7289
      7281      7283      7285      7281      7283      7286      7285      7283      7286
      7283      7286      7288      7283      7286      7292      7288      7286      7292
      7281      7289      7291      7281      7289      7292      7291      7289      7292
      7286      7292      7289      7286      7292      7294      7289      7292      7294
      7298      7296      7299      7298      7296      7300      7298      7296      7301
      7299      7296      7300      7299      7296      7301      7300      7296      7301
      7296      7301      7303      7296      7301      7309      7303      7301      7309
      7301      7303      7305      7301      7303      7306      7305      7303      7306
      7303      7306      7308      7303      7306      7312      7308      7306      7312
      7301      7309      7311      7301      7309      7312      7311      7309      7312
      7306      7312      7309      7306      7312      7314      7309      7312      7314
      7318      7316      7319      7318      7316      7320      7318      7316      7321
      7319      7316      7320      7319      7316      7321      7320      7316      7321
      7316      7321      7323      7316      7321      7329      7323      7321      7329
      7321      7323      7325      7321      7323      7326      7325      7323      7326
      7323      7326      7328      7323      7326      7332      7328      7326      7332
      7321      7329      7331      7321      7329      7332      7331      7329      7332
      7326      7332      7329      7326      7332      7334      7329      7332      7334
      7338      7336      7339      7338      7336      7340      7338      7336      7341
      7339      7336      7340      7339      7336      7341      7340      7336      7341
      7336      7341      7343      7336      7341      7349      7343      7341      7349
      7341      7343      7345      7341      7343      7346      7345      7343      7346
      7343      7346      7348      7343      7346      7352      7348      7346      7352
      7341      7349      7351      7341      7349      7352      7351      7349      7352
      7346      7352      7349      7346      7352      7354      7349      7352      7354
      7358      7356      7359      7358      7356      7360      7358      7356      7361
      7359      7356      7360      7359      7356      7361      7360      7356      7361
      7356      7361      7363      7356      7361      7369      7363      7361      7369
      7361      7363      7365      7361      7363      7366      7365      7363      7366
      7363      7366      7368      7363      7366      7372      7368      7366      7372
      7361      7369      7371      7361      7369      7372      7371      7369      7372
      7366      7372      7369      7366      7372      7374      7369      7372      7374
      7378      7376      7379      7378      7376      7380      7378      7376      7381
      7379      7376      7380      7379      7376      7381      7380      7376      7381
      7376      7381      7383      7376      7381      7389      7383      7381      7389
      7381      7383      7385      7381      7383      7386      7385      7383      7386
      7383      7386      7388      7383      7386      7392      7388      7386      7392
      7381      7389      7391      7381      7389      7392      7391      7389      7392
      7386      7392      7389      7386      7392      7394      7389      7392      7394
      7398      7396      7399      7398      7396      7400      7398      7396      7401
      7399      7396      7400      7399      7396      7401      7400      7396      7401
      7396      7401      7403      7396      7401      7409      7403      7401      7409
      7401      7403      7405      7401      7403      7406      7405      7403      7406
      7403      7406      7408      7403      7406      7412      7408      7406      7412
      7401      7409      7411      7401      7409      7412      7411      7409      7412
      7406      7412      7409      7406      7412      7414      7409      7412      7414
      7418      7416      7419      7418      7416      7420      7418      7416      7421
      7419      7416      7420      7419      7416      7421      7420      7416      7421
      7416      7421      7423      7416      7421      7429      7423      7421      7429
      7421      7423      7425      7421      7423      7426      7425      7423      7426
      7423      7426      7428      7423      7426      7432      7428      7426      7432
      7421      7429      7431      7421      7429      7432      7431      7429      7432
      7426      7432      7429      7426      7432      7434      7429      7432      7434
      7438      7436      7439      7438      7436      7440      7438      7436      7441
      7439      7436      7440      7439      7436      7441      7440      7436      7441
      7436      7441      7443      7436      7441      7449      7443      7441      7449
      7441      7443      7445      7441      7443      7446      7445      7443      7446
      7443      7446      7448      7443      7446      7452      7448      7446      7452
      7441      7449      7451      7441      7449      7452      7451      7449      7452
      7446      7452      7449      7446      7452      7454      7449      7452      7454
      7458      7456      7459      7458      7456      7460      7458      7456      7461
      7459      7456      7460      7459      7456      7461      7460      7456      7461
      7456      7461      7463      7456      7461      7469      7463      7461      7469
      7461      7463      7465      7461      7463      7466      7465      7463      7466
      7463      7466      7468      7463      7466      7472      7468      7466      7472
      7461      7469      7471      7461      7469      7472      7471      7469      7472
      7466      7472      7469      7466      7472      7474      7469      7472      7474
      7478      7476      7479      7478      7476      7480      7478      7476      7481
      7479      7476      7480      7479      7476      7481      7480      7476      7481
      7476      7481      7483      7476      7481      7489      7483      7481      7489
      7481      7483      7485      7481      7483      7486      7485      7483      7486
      7483      7486      7488      7483      7486      7492      7488      7486      7492
      7481      7489      7491      7481      7489      7492      7491      7489      7492
      7486      7492      7489      7486      7492      7494      7489      7492      7494
      7498      7496      7499      7498      7496      7500      7498      7496      7501
      7499      7496      7500      7499      7496      7501      7500      7496      7501
      7496      7501      7503      7496      7501      7509      7503      7501      7509
      7501      7503      7505      7501      7503      7506      7505      7503      7506
      7503      7506      7508      7503      7506      7512      7508      7506      7512
      7501      7509      7511      7501      7509      7512      7511      7509      7512
      7506      7512      7509      7506      7512      7514      7509      7512      7514
      7518      7516      7519      7518      7516      7520      7518      7516      7521
      7519      7516      7520      7519      7516      7521      7520      7516      7521
      7516      7521      7523      7516      7521      7529      7523      7521      7529
      7521      7523      7525      7521      7523      7526      7525      7523      7526
      7523      7526      7528      7523      7526      7532      7528      7526      7532
      7521      7529      7531      7521      7529      7532      7531      7529      7532
      7526      7532      7529      7526      7532      7534      7529      7532      7534
      7538      7536      7539      7538      7536      7540      7538      7536      7541
      7539      7536      7540      7539      7536      7541      7540      7536      7541
      7536      7541      7543      7536      7541      7549      7543      7541      7549
      7541      7543      7545      7541      7543      7546      7545      7543      7546
      7543      7546      7548      7543      7546      7552      7548      7546      7552
      7541      7549      7551      7541      7549      7552      7551      7549      7552
      7546      7552      7549      7546      7552      7554      7549      7552      7554
      7558      7556      7559      7558      7556      7560      7558      7556      7561
      7559      7556      7560      7559      7556      7561      7560      7556      7561
      7556      7561      7563      7556      7561      7569      7563      7561      7569
      7561      7563      7565      7561      7563      7566      7565      7563      7566
      7563      7566      7568      7563      7566      7572      7568      7566      7572
      7561      7569      7571      7561      7569      7572      7571      7569      7572
      7566      7572      7569      7566      7572      7574      7569      7572      7574
      7578      7576      7579      7578      7576      7580      7578      7576      7581
      7579      7576      7580      7579      7576      7581      7580      7576      7581
      7576      7581      7583      7576      7581      7589      7583      7581      7589
      7581      7583      7585      7581      7583      7586      7585      7583      7586
      7583      7586      7588      7583      7586      7592      7588      7586      7592
      7581      7589      7591      7581      7589      7592      7591      7589      7592
      7586      7592      7589      7586      7592      7594      7589      7592      7594
      7598      7596      7599      7598      7596      7600      7598      7596      7601
      7599      7596      7600      7599      7596      7601      7600      7596      7601
      7596      7601      7603      7596      7601      7609      7603      7601      7609
      7601      7603      7605      7601      7603      7606      7605      7603      7606
      7603      7606      7608      7603      7606      7612      7608      7606      7612
      7601      7609      7611      7601      7609      7612      7611      7609      7612
      7606      7612      7609      7606      7612      7614      7609      7612      7614
      7618      7616      7619      7618      7616      7620      7618      7616      7621
      7619      7616      7620      7619      7616      7621      7620      7616      7621
      7616      7621      7623      7616      7621      7629      7623      7621      7629
      7621      7623      7625      7621      7623      7626      7625      7623      7626
      7623      7626      7628      7623      7626      7632      7628      7626      7632
      7621      7629      7631      7621      7629      7632      7631      7629      7632
      7626      7632      7629      7626      7632      7634      7629      7632      7634
      7638      7636      7639      7638      7636      7640      7638      7636      7641
      7639      7636      7640      7639      7636      7641      7640      7636      7641
      7636      7641      7643      7636      7641      7649      7643      7641      7649
      7641      7643      7645      7641      7643      7646      7645      7643      7646
      7643      7646      7648      7643      7646      7652      7648      7646      7652
      7641      7649      7651      7641      7649      7652      7651      7649      7652
      7646      7652      7649      7646      7652      7654      7649      7652      7654
      7658      7656      7659      7658      7656      7660      7658      7656      7661
      7659      7656      7660      7659      7656      7661      7660      7656      7661
      7656      7661      7663      7656      7661      7669      7663      7661      7669
      7661      7663      7665      7661      7663      7666      7665      7663      7666
      7663      7666      7668      7663      7666      7672      7668      7666      7672
      7661      7669      7671      7661      7669      7672      7671      7669      7672
      7666      7672      7669      7666      7672      7674      7669      7672      7674
      7678      7676      7679      7678      7676      7680      7678      7676      7681
      7679      7676      7680      7679      7676      7681      7680      7676      7681
      7676      7681      7683      7676      7681      7689      7683      7681      7689
      7681      7683      7685      7681      7683      7686      7685      7683      7686
      7683      7686      7688      7683      7686      7692      7688      7686      7692
      7681      7689      7691      7681      7689      7692      7691      7689      7692
      7686      7692      7689      7686      7692      7694      7689      7692      7694
      7698      7696      7699      7698      7696      7700      7698      7696      7701
      7699      7696      7700      7699      7696      7701      7700      7696      7701
      7696      7701      7703      7696      7701      7709      7703      7701      7709
      7701      7703      7705      7701      7703      7706      7705      7703      7706
      7703      7706      7708      7703      7706      7712      7708      7706      7712
      7701      7709      7711      7701      7709      7712      7711      7709      7712
      7706      7712      7709      7706      7712      7714      7709      7712      7714
      7718      7716      7719      7718      7716      7720      7718      7716      7721
      7719      7716      7720      7719      7716      7721      7720      7716      7721
      7716      7721      7723      7716      7721      7729      7723      7721      7729
      7721      7723      7725      7721      7723      7726      7725      7723      7726
      7723      7726      7728      7723      7726      7732      7728      7726      7732
      7721      7729      7731      7721      7729      7732      7731      7729      7732
      7726      7732      7729      7726      7732      7734      7729      7732      7734
      7738      7736      7739      7738      7736      7740      7738      7736      7741
      7739      7736      7740      7739      7736      7741      7740      7736      7741
      7736      7741      7743      7736      7741      7749      7743      7741      7749
      7741      7743      7745      7741      7743      7746      7745      7743      7746
      7743      7746      7748      7743      7746      7752      7748      7746      7752
      7741      7749      7751      7741      7749      7752      7751      7749      7752
      7746      7752      7749      7746      7752      7754      7749      7752      7754
      7758      7756      7759      7758      7756      7760      7758      7756      7761
      7759      7756      7760      7759      7756      7761      7760      7756      7761
      7756      7761      7763      7756      7761      7769      7763      7761      7769
      7761      7763      7765      7761      7763      7766      7765      7763      7766
      7763      7766      7768      7763      7766      7772      7768      7766      7772
      7761      7769      7771      7761      7769      7772      7771      7769      7772
      7766      7772      7769      7766      7772      7774      7769      7772      7774
      7778      7776      7779      7778      7776      7780      7778      7776      7781
      7779      7776      7780      7779      7776      7781      7780      7776      7781
      7776      7781      7783      7776      7781      7789      7783      7781      7789
      7781      7783      7785      7781      7783      7786      7785      7783      7786
      7783      7786      7788      7783      7786      7792      7788      7786      7792
      7781      7789      7791      7781      7789      7792      7791      7789      7792
      7786      7792      7789      7786      7792      7794      7789      7792      7794
      7798      7796      7799      7798      7796      7800      7798      7796      7801
      7799      7796      7800      7799      7796      7801      7800      7796      7801
      7796      7801      7803      7796      7801      7809      7803      7801      7809
      7801      7803      7805      7801      7803      7806      7805      7803      7806
      7803      7806      7808      7803      7806      7812      7808      7806      7812
      7801      7809      7811      7801      7809      7812      7811      7809      7812
      7806      7812      7809      7806      7812      7814      7809      7812      7814
      7818      7816      7819      7818      7816      7820      7818      7816      7821
      7819      7816      7820      7819      7816      7821      7820      7816      7821
      7816      7821      7823      7816      7821      7829      7823      7821      7829
      7821      7823      7825      7821      7823      7826      7825      7823      7826
      7823      7826      7828      7823      7826      7832      7828      7826      7832
      7821      7829      7831      7821      7829      7832      7831      7829      7832
      7826      7832      7829      7826      7832      7834      7829      7832      7834
      7838      7836      7839      7838      7836      7840      7838      7836      7841
      7839      7836      7840      7839      7836      7841      7840      7836      7841
      7836      7841      7843      7836      7841      7849      7843      7841      7849
      7841      7843      7845      7841      7843      7846      7845      7843      7846
      7843      7846      7848      7843      7846      7852      7848      7846      7852
      7841      7849      7851      7841      7849      7852      7851      7849      7852
      7846      7852      7849      7846      7852      7854      7849      7852      7854
      7858      7856      7859      7858      7856      7860      7858      7856      7861
      7859      7856      7860      7859      7856      7861      7860      7856      7861
      7856      7861      7863      7856      7861      7869      7863      7861      7869
      7861      7863      7865      7861      7863      7866      7865      7863      7866
      7863      7866      7868      7863      7866      7872      7868      7866      7872
      7861      7869      7871      7861      7869      7872      7871      7869      7872
      7866      7872      7869      7866      7872      7874      7869      7872      7874
      7878      7876      7879      7878      7876      7880      7878      7876      7881
      7879      7876      7880      7879      7876      7881      7880      7876      7881
      7876      7881      7883      7876      7881      7889      7883      7881      7889
      7881      7883      7885      7881      7883      7886      7885      7883      7886
      7883      7886      7888      7883      7886      7892      7888      7886      7892
      7881      7889      7891      7881      7889      7892      7891      7889      7892
      7886      7892      7889      7886      7892      7894      7889      7892      7894
      7898      7896      7899      7898      7896      7900      7898      7896      7901
      7899      7896      7900      7899      7896      7901      7900      7896      7901
      7896      7901      7903      7896      7901      7909      7903      7901      7909
      7901      7903      7905      7901      7903      7906      7905      7903      7906
      7903      7906      7908      7903      7906      7912      7908      7906      7912
      7901      7909      7911      7901      7909      7912      7911      7909      7912
      7906      7912      7909      7906      7912      7914      7909      7912      7914
      7918      7916      7919      7918      7916      7920      7918      7916      7921
      7919      7916      7920      7919      7916      7921      7920      7916      7921
      7916      7921      7923      7916      7921      7929      7923      7921      7929
      7921      7923      7925      7921      7923      7926      7925      7923      7926
      7923      7926      7928      7923      7926      7932      7928      7926      7932
      7921      7929      7931      7921      7929      7932      7931      7929      7932
      7926      7932      7929      7926      7932      7934      7929      7932      7934
      7938      7936      7939      7938      7936      7940      7938      7936      7941
      7939      7936      7940      7939      7936      7941      7940      7936      7941
      7936      7941      7943      7936      7941      7949      7943      7941      7949
      7941      7943      7945      7941      7943      7946      7945      7943      7946
      7943      7946      7948      7943      7946      7952      7948      7946      7952
      7941      7949      7951      7941      7949      7952      7951      7949      7952
      7946      7952      7949      7946      7952      7954      7949      7952      7954
      7958      7956      7959      7958      7956      7960      7958      7956      7961
      7959      7956      7960      7959      7956      7961      7960      7956      7961
      7956      7961      7963      7956      7961      7969      7963      7961      7969
      7961      7963      7965      7961      7963      7966      7965      7963      7966
      7963      7966      7968      7963      7966      7972      7968      7966      7972
      7961      7969      7971      7961      7969      7972      7971      7969      7972
      7966      7972      7969      7966      7972      7974      7969      7972      7974
      7978      7976      7979      7978      7976      7980      7978      7976      7981
      7979      7976      7980      7979      7976      7981      7980      7976      7981
      7976      7981      7983      7976      7981      7989      7983      7981      7989
      7981      7983      7985      7981      7983      7986      7985      7983      7986
      7983      7986      7988      7983      7986      7992      7988      7986      7992
      7981      7989      7991      7981      7989      7992      7991      7989      7992
      7986      7992      7989      7986      7992      7994      7989      7992      7994
      7998      7996      7999      7998      7996      8000      7998      7996      8001
      7999      7996      8000      7999      7996      8001      8000      7996      8001
      7996      8001      8003      7996      8001      8009      8003      8001      8009
      8001      8003      8005      8001      8003      8006      8005      8003      8006
      8003      8006      8008      8003      8006      8012      8008      8006      8012
      8001      8009      8011      8001      8009      8012      8011      8009      8012
      8006      8012      8009      8006      8012      8014      8009      8012      8014
      8018      8016      8019      8018      8016      8020      8018      8016      8021
      8019      8016      8020      8019      8016      8021      8020      8016      8021
      8016      8021      8023      8016      8021      8029      8023      8021      8029
      8021      8023      8025      8021      8023      8026      8025      8023      8026
      8023      8026      8028      8023      8026      8032      8028      8026      8032
      8021      8029      8031      8021      8029      8032      8031      8029      8032
      8026      8032      8029      8026      8032      8034      8029      8032      8034
      8038      8036      8039      8038      8036      8040      8038      8036      8041
      8039      8036      8040      8039      8036      8041      8040      8036      8041
      8036      8041      8043      8036      8041      8049      8043      8041      8049
      8041      8043      8045      8041      8043      8046      8045      8043      8046
      8043      8046      8048      8043      8046      8052      8048      8046      8052
      8041      8049      8051      8041      8049      8052      8051      8049      8052
      8046      8052      8049      8046      8052      8054      8049      8052      8054
      8058      8056      8059      8058      8056      8060      8058      8056      8061
      8059      8056      8060      8059      8056      8061      8060      8056      8061
      8056      8061      8063      8056      8061      8069      8063      8061      8069
      8061      8063      8065      8061      8063      8066      8065      8063      8066
      8063      8066      8068      8063      8066      8072      8068      8066      8072
      8061      8069      8071      8061      8069      8072      8071      8069      8072
      8066      8072      8069      8066      8072      8074      8069      8072      8074
      8078      8076      8079      8078      8076      8080      8078      8076      8081
      8079      8076      8080      8079      8076      8081      8080      8076      8081
      8076      8081      8083      8076      8081      8089      8083      8081      8089
      8081      8083      8085      8081      8083      8086      8085      8083      8086
      8083      8086      8088      8083      8086      8092      8088      8086      8092
      8081      8089      8091      8081      8089      8092      8091      8089      8092
      8086      8092      8089      8086      8092      8094      8089      8092      8094
      8098      8096      8099      8098      8096      8100      8098      8096      8101
      8099      8096      8100      8099      8096      8101      8100      8096      8101
      8096      8101      8103      8096      8101      8109      8103      8101      8109
      8101      8103      8105      8101      8103      8106      8105      8103      8106
      8103      8106      8108      8103      8106      8112      8108      8106      8112
      8101      8109      8111      8101      8109      8112      8111      8109      8112
      8106      8112      8109      8106      8112      8114      8109      8112      8114
      8118      8116      8119      8118      8116      8120      8118      8116      8121
      8119      8116      8120      8119      8116      8121      8120      8116      8121
      8116      8121      8123      8116      8121      8129      8123      8121      8129
      8121      8123      8125      8121      8123      8126      8125      8123      8126
      8123      8126      8128      8123      8126      8132      8128      8126      8132
      8121      8129      8131      8121      8129      8132      8131      8129      8132
      8126      8132      8129      8126      8132      8134      8129      8132      8134
      8138      8136      8139      8138      8136      8140      8138      8136      8141
      8139      8136      8140      8139      8136      8141      8140      8136      8141
      8136      8141      8143      8136      8141      8149      8143      8141      8149
      8141      8143      8145      8141      8143      8146      8145      8143      8146
      8143      8146      8148      8143      8146      8152      8148      8146      8152
      8141      8149      8151      8141      8149      8152      8151      8149      8152
      8146      8152      8149      8146      8152      8154      8149      8152      8154
      8158      8156      8159      8158      8156      8160      8158      8156      8161
      8159      8156      8160      8159      8156      8161      8160      8156      8161
      8156      8161      8163      8156      8161      8169      8163      8161      8169
      8161      8163      8165      8161      8163      8166      8165      8163      8166
      8163      8166      8168      8163      8166      8172      8168      8166      8172
      8161      8169      8171      8161      8169      8172      8171      8169      8172
      8166      8172      8169      8166      8172      8174      8169      8172      8174
      8178      8176      8179      8178      8176      8180      8178      8176      8181
      8179      8176      8180      8179      8176      8181      8180      8176      8181
      8176      8181      8183      8176      8181      8189      8183      8181      8189
      8181      8183      8185      8181      8183      8186      8185      8183      8186
      8183      8186      8188      8183      8186      8192      8188      8186      8192
      8181      8189      8191      8181      8189      8192      8191      8189      8192
      8186      8192      8189      8186      8192      8194      8189      8192      8194
      8198      8196      8199      8198      8196      8200      8198      8196      8201
      8199      8196      8200      8199      8196      8201      8200      8196      8201
      8196      8201      8203      8196      8201      8209      8203      8201      8209
      8201      8203      8205      8201      8203      8206      8205      8203      8206
      8203      8206      8208      8203      8206      8212      8208      8206      8212
      8201      8209      8211      8201      8209      8212      8211      8209      8212
      8206      8212      8209      8206      8212      8214      8209      8212      8214
      8218      8216      8219      8218      8216      8220      8218      8216      8221
      8219      8216      8220      8219      8216      8221      8220      8216      8221
      8216      8221      8223      8216      8221      8229      8223      8221      8229
      8221      8223      8225      8221      8223      8226      8225      8223      8226
      8223      8226      8228      8223      8226      8232      8228      8226      8232
      8221      8229      8231      8221      8229      8232      8231      8229      8232
      8226      8232      8229      8226      8232      8234      8229      8232      8234
      8238      8236      8239      8238      8236      8240      8238      8236      8241
      8239      8236      8240      8239      8236      8241      8240      8236      8241
      8236      8241      8243      8236      8241      8249      8243      8241      8249
      8241      8243      8245      8241      8243      8246      8245      8243      8246
      8243      8246      8248      8243      8246      8252      8248      8246      8252
      8241      8249      8251      8241      8249      8252      8251      8249      8252
      8246      8252      8249      8246      8252      8254      8249      8252      8254
      8258      8256      8259      8258      8256      8260      8258      8256      8261
      8259      8256      8260      8259      8256      8261      8260      8256      8261
      8256      8261      8263      8256      8261      8269      8263      8261      8269
      8261      8263      8265      8261      8263      8266      8265      8263      8266
      8263      8266      8268      8263      8266      8272      8268      8266      8272
      8261      8269      8271      8261      8269      8272      8271      8269      8272
      8266      8272      8269      8266      8272      8274      8269      8272      8274
      8278      8276      8279      8278      8276      8280      8278      8276      8281
      8279      8276      8280      8279      8276      8281      8280      8276      8281
      8276      8281      8283      8276      8281      8289      8283      8281      8289
      8281      8283      8285      8281      8283      8286      8285      8283      8286
      8283      8286      8288      8283      8286      8292      8288      8286      8292
      8281      8289      8291      8281      8289      8292      8291      8289      8292
      8286      8292      8289      8286      8292      8294      8289      8292      8294
      8298      8296      8299      8298      8296      8300      8298      8296      8301
      8299      8296      8300      8299      8296      8301      8300      8296      8301
      8296      8301      8303      8296      8301      8309      8303      8301      8309
      8301      8303      8305      8301      8303      8306      8305      8303      8306
      8303      8306      8308      8303      8306      8312      8308      8306      8312
      8301      8309      8311      8301      8309      8312      8311      8309      8312
      8306      8312      8309      8306      8312      8314      8309      8312      8314
      8318      8316      8319      8318      8316      8320      8318      8316      8321
      8319      8316      8320      8319      8316      8321      8320      8316      8321
      8316      8321      8323      8316      8321      8329      8323      8321      8329
      8321      8323      8325      8321      8323      8326      8325      8323      8326
      8323      8326      8328      8323      8326      8332      8328      8326      8332
      8321      8329      8331      8321      8329      8332      8331      8329      8332
      8326      8332      8329      8326      8332      8334      8329      8332      8334
      8338      8336      8339      8338      8336      8340      8338      8336      8341
      8339      8336      8340      8339      8336      8341      8340      8336      8341
      8336      8341      8343      8336      8341      8349      8343      8341      8349
      8341      8343      8345      8341      8343      8346      8345      8343      8346
      8343      8346      8348      8343      8346      8352      8348      8346      8352
      8341      8349      8351      8341      8349      8352      8351      8349      8352
      8346      8352      8349      8346      8352      8354      8349      8352      8354
      8358      8356      8359      8358      8356      8360      8358      8356      8361
      8359      8356      8360      8359      8356      8361      8360      8356      8361
      8356      8361      8363      8356      8361      8369      8363      8361      8369
      8361      8363      8365      8361      8363      8366      8365      8363      8366
      8363      8366      8368      8363      8366      8372      8368      8366      8372
      8361      8369      8371      8361      8369      8372      8371      8369      8372
      8366      8372      8369      8366      8372      8374      8369      8372      8374
      8378      8376      8379      8378      8376      8380      8378      8376      8381
      8379      8376      8380      8379      8376      8381      8380      8376      8381
      8376      8381      8383      8376      8381      8389      8383      8381      8389
      8381      8383      8385      8381      8383      8386      8385      8383      8386
      8383      8386      8388      8383      8386      8392      8388      8386      8392
      8381      8389      8391      8381      8389      8392      8391      8389      8392
      8386      8392      8389      8386      8392      8394      8389      8392      8394
      8398      8396      8399      8398      8396      8400      8398      8396      8401
      8399      8396      8400      8399      8396      8401      8400      8396      8401
      8396      8401      8403      8396      8401      8409      8403      8401      8409
      8401      8403      8405      8401      8403      8406      8405      8403      8406
      8403      8406      8408      8403      8406      8412      8408      8406      8412
      8401      8409      8411      8401      8409      8412      8411      8409      8412
      8406      8412      8409      8406      8412      8414      8409      8412      8414
      8418      8416      8419      8418      8416      8420      8418      8416      8421
      8419      8416      8420      8419      8416      8421      8420      8416      8421
      8416      8421      8423      8416      8421      8429      8423      8421      8429
      8421      8423      8425      8421      8423      8426      8425      8423      8426
      8423      8426      8428      8423      8426      8432      8428      8426      8432
      8421      8429      8431      8421      8429      8432      8431      8429      8432
      8426      8432      8429      8426      8432      8434      8429      8432      8434
      8438      8436      8439      8438      8436      8440      8438      8436      8441
      8439      8436      8440      8439      8436      8441      8440      8436      8441
      8436      8441      8443      8436      8441      8449      8443      8441      8449
      8441      8443      8445      8441      8443      8446      8445      8443      8446
      8443      8446      8448      8443      8446      8452      8448      8446      8452
      8441      8449      8451      8441      8449      8452      8451      8449      8452
      8446      8452      8449      8446      8452      8454      8449      8452      8454
      8458      8456      8459      8458      8456      8460      8458      8456      8461
      8459      8456      8460      8459      8456      8461      8460      8456      8461
      8456      8461      8463      8456      8461      8469      8463      8461      8469
      8461      8463      8465      8461      8463      8466      8465      8463      8466
      8463      8466      8468      8463      8466      8472      8468      8466      8472
      8461      8469      8471      8461      8469      8472      8471      8469      8472
      8466      8472      8469      8466      8472      8474      8469      8472      8474
      8478      8476      8479      8478      8476      8480      8478      8476      8481
      8479      8476      8480      8479      8476      8481      8480      8476      8481
      8476      8481      8483      8476      8481      8489      8483      8481      8489
      8481      8483      8485      8481      8483      8486      8485      8483      8486
      8483      8486      8488      8483      8486      8492      8488      8486      8492
      8481      8489      8491      8481      8489      8492      8491      8489      8492
      8486      8492      8489      8486      8492      8494      8489      8492      8494
      8498      8496      8499      8498      8496      8500      8498      8496      8501
      8499      8496      8500      8499      8496      8501      8500      8496      8501
      8496      8501      8503      8496      8501      8509      8503      8501      8509
      8501      8503      8505      8501      8503      8506      8505      8503      8506
      8503      8506      8508      8503      8506      8512      8508      8506      8512
      8501      8509      8511      8501      8509      8512      8511      8509      8512
      8506      8512      8509      8506      8512      8514      8509      8512      8514
      8518      8516      8519      8518      8516      8520      8518      8516      8521
      8519      8516      8520      8519      8516      8521      8520      8516      8521
      8516      8521      8523      8516      8521      8529      8523      8521      8529
      8521      8523      8525      8521      8523      8526      8525      8523      8526
      8523      8526      8528      8523      8526      8532      8528      8526      8532
      8521      8529      8531      8521      8529      8532      8531      8529      8532
      8526      8532      8529      8526      8532      8534      8529      8532      8534
      8538      8536      8539      8538      8536      8540      8538      8536      8541
      8539      8536      8540      8539      8536      8541      8540      8536      8541
      8536      8541      8543      8536      8541      8549      8543      8541      8549
      8541      8543      8545      8541      8543      8546      8545      8543      8546
      8543      8546      8548      8543      8546      8552      8548      8546      8552
      8541      8549      8551      8541      8549      8552      8551      8549      8552
      8546      8552      8549      8546      8552      8554      8549      8552      8554
      8558      8556      8559      8558      8556      8560      8558      8556      8561
      8559      8556      8560      8559      8556      8561      8560      8556      8561
      8556      8561      8563      8556      8561      8569      8563      8561      8569
      8561      8563      8565      8561      8563      8566      8565      8563      8566
      8563      8566      8568      8563      8566      8572      8568      8566      8572
      8561      8569      8571      8561      8569      8572      8571      8569      8572
      8566      8572      8569      8566      8572      8574      8569      8572      8574
      8578      8576      8579      8578      8576      8580      8578      8576      8581
      8579      8576      8580      8579      8576      8581      8580      8576      8581
      8576      8581      8583      8576      8581      8589      8583      8581      8589
      8581      8583      8585      8581      8583      8586      8585      8583      8586
      8583      8586      8588      8583      8586      8592      8588      8586      8592
      8581      8589      8591      8581      8589      8592      8591      8589      8592
      8586      8592      8589      8586      8592      8594      8589      8592      8594
      8598      8596      8599      8598      8596      8600      8598      8596      8601
      8599      8596      8600      8599      8596      8601      8600      8596      8601
      8596      8601      8603      8596      8601      8609      8603      8601      8609
      8601      8603      8605      8601      8603      8606      8605      8603      8606
      8603      8606      8608      8603      8606      8612      8608      8606      8612
      8601      8609      8611      8601      8609      8612      8611      8609      8612
      8606      8612      8609      8606      8612      8614      8609      8612      8614
      8618      8616      8619      8618      8616      8620      8618      8616      8621
      8619      8616      8620      8619      8616      8621      8620      8616      8621
      8616      8621      8623      8616      8621      8629      8623      8621      8629
      8621      8623      8625      8621      8623      8626      8625      8623      8626
      8623      8626      8628      8623      8626      8632      8628      8626      8632
      8621      8629      8631      8621      8629      8632      8631      8629      8632
      8626      8632      8629      8626      8632      8634      8629      8632      8634
      8638      8636      8639      8638      8636      8640      8638      8636      8641
      8639      8636      8640      8639      8636      8641      8640      8636      8641
      8636      8641      8643      8636      8641      8649      8643      8641      8649
      8641      8643      8645      8641      8643      8646      8645      8643      8646
      8643      8646      8648      8643      8646      8652      8648      8646      8652
      8641      8649      8651      8641      8649      8652      8651      8649      8652
      8646      8652      8649      8646      8652      8654      8649      8652      8654
      8658      8656      8659      8658      8656      8660      8658      8656      8661
      8659      8656      8660      8659      8656      8661      8660      8656      8661
      8656      8661      8663      8656      8661      8669      8663      8661      8669
      8661      8663      8665      8661      8663      8666      8665      8663      8666
      8663      8666      8668      8663      8666      8672      8668      8666      8672
      8661      8669      8671      8661      8669      8672      8671      8669      8672
      8666      8672      8669      8666      8672      8674      8669      8672      8674
      8678      8676      8679      8678      8676      8680      8678      8676      8681
      8679      8676      8680      8679      8676      8681      8680      8676      8681
      8676      8681      8683      8676      8681      8689      8683      8681      8689
      8681      8683      8685      8681      8683      8686      8685      8683      8686
      8683      8686      8688      8683      8686      8692      8688      8686      8692
      8681      8689      8691      8681      8689      8692      8691      8689      8692
      8686      8692      8689      8686      8692      8694      8689      8692      8694
      8698      8696      8699      8698      8696      8700      8698      8696      8701
      8699      8696      8700      8699      8696      8701      8700      8696      8701
      8696      8701      8703      8696      8701      8709      8703      8701      8709
      8701      8703      8705      8701      8703      8706      8705      8703      8706
      8703      8706      8708      8703      8706      8712      8708      8706      8712
      8701      8709      8711      8701      8709      8712      8711      8709      8712
      8706      8712      8709      8706      8712      8714      8709      8712      8714
      8718      8716      8719      8718      8716      8720      8718      8716      8721
      8719      8716      8720      8719      8716      8721      8720      8716      8721
      8716      8721      8723      8716      8721      8729      8723      8721      8729
      8721      8723      8725      8721      8723      8726      8725      8723      8726
      8723      8726      8728      8723      8726      8732      8728      8726      8732
      8721      8729      8731      8721      8729      8732      8731      8729      8732
      8726      8732      8729      8726      8732      8734      8729      8732      8734
      8738      8736      8739      8738      8736      8740      8738      8736      8741
      8739      8736      8740      8739      8736      8741      8740      8736      8741
      8736      8741      8743      8736      8741      8749      8743      8741      8749
      8741      8743      8745      8741      8743      8746      8745      8743      8746
      8743      8746      8748      8743      8746      8752      8748      8746      8752
      8741      8749      8751      8741      8749      8752      8751      8749      8752
      8746      8752      8749      8746      8752      8754      8749      8752      8754
      8758      8756      8759      8758      8756      8760      8758      8756      8761
      8759      8756      8760      8759      8756      8761      8760      8756      8761
      8756      8761      8763      8756      8761      8769      8763      8761      8769
      8761      8763      8765      8761      8763      8766      8765      8763      8766
      8763      8766      8768      8763      8766      8772      8768      8766      8772
      8761      8769      8771      8761      8769      8772      8771      8769      8772
      8766      8772      8769      8766      8772      8774      8769      8772      8774
      8778      8776      8779      8778      8776      8780      8778      8776      8781
      8779      8776      8780      8779      8776      8781      8780      8776      8781
      8776      8781      8783      8776      8781      8789      8783      8781      8789
      8781      8783      8785      8781      8783      8786      8785      8783      8786
      8783      8786      8788      8783      8786      8792      8788      8786      8792
      8781      8789      8791      8781      8789      8792      8791      8789      8792
      8786      8792      8789      8786      8792      8794      8789      8792      8794
      8798      8796      8799      8798      8796      8800      8798      8796      8801
      8799      8796      8800      8799      8796      8801      8800      8796      8801
      8796      8801      8803      8796      8801      8809      8803      8801      8809
      8801      8803      8805      8801      8803      8806      8805      8803      8806
      8803      8806      8808      8803      8806      8812      8808      8806      8812
      8801      8809      8811      8801      8809      8812      8811      8809      8812
      8806      8812      8809      8806      8812      8814      8809      8812      8814
      8818      8816      8819      8818      8816      8820      8818      8816      8821
      8819      8816      8820      8819      8816      8821      8820      8816      8821
      8816      8821      8823      8816      8821      8829      8823      8821      8829
      8821      8823      8825      8821      8823      8826      8825      8823      8826
      8823      8826      8828      8823      8826      8832      8828      8826      8832
      8821      8829      8831      8821      8829      8832      8831      8829      8832
      8826      8832      8829      8826      8832      8834      8829      8832      8834
      8838      8836      8839      8838      8836      8840      8838      8836      8841
      8839      8836      8840      8839      8836      8841      8840      8836      8841
      8836      8841      8843      8836      8841      8849      8843      8841      8849
      8841      8843      8845      8841      8843      8846      8845      8843      8846
      8843      8846      8848      8843      8846      8852      8848      8846      8852
      8841      8849      8851      8841      8849      8852      8851      8849      8852
      8846      8852      8849      8846      8852      8854      8849      8852      8854
      8858      8856      8859      8858      8856      8860      8858      8856      8861
      8859      8856      8860      8859      8856      8861      8860      8856      8861
      8856      8861      8863      8856      8861      8869      8863      8861      8869
      8861      8863      8865      8861      8863      8866      8865      8863      8866
      8863      8866      8868      8863      8866      8872      8868      8866      8872
      8861      8869      8871      8861      8869      8872      8871      8869      8872
      8866      8872      8869      8866      8872      8874      8869      8872      8874
      8878      8876      8879      8878      8876      8880      8878      8876      8881
      8879      8876      8880      8879      8876      8881      8880      8876      8881
      8876      8881      8883      8876      8881      8889      8883      8881      8889
      8881      8883      8885      8881      8883      8886      8885      8883      8886
      8883      8886      8888      8883      8886      8892      8888      8886      8892
      8881      8889      8891      8881      8889      8892      8891      8889      8892
      8886      8892      8889      8886      8892      8894      8889      8892      8894
      8898      8896      8899      8898      8896      8900      8898      8896      8901
      8899      8896      8900      8899      8896      8901      8900      8896      8901
      8896      8901      8903      8896      8901      8909      8903      8901      8909
      8901      8903      8905      8901      8903      8906      8905      8903      8906
      8903      8906      8908      8903      8906      8912      8908      8906      8912
      8901      8909      8911      8901      8909      8912      8911      8909      8912
      8906      8912      8909      8906      8912      8914      8909      8912      8914
      8918      8916      8919      8918      8916      8920      8918      8916      8921
      8919      8916      8920      8919      8916      8921      8920      8916      8921
      8916      8921      8923      8916      8921      8929      8923      8921      8929
      8921      8923      8925      8921      8923      8926      8925      8923      8926
      8923      8926      8928      8923      8926      8932      8928      8926      8932
      8921      8929      8931      8921      8929      8932      8931      8929      8932
      8926      8932      8929      8926      8932      8934      8929      8932      8934
      8938      8936      8939      8938      8936      8940      8938      8936      8941
      8939      8936      8940      8939      8936      8941      8940      8936      8941
      8936      8941      8943      8936      8941      8949      8943      8941      8949
      8941      8943      8945      8941      8943      8946      8945      8943      8946
      8943      8946      8948      8943      8946      8952      8948      8946      8952
      8941      8949      8951      8941      8949      8952      8951      8949      8952
      8946      8952      8949      8946      8952      8954      8949      8952      8954
      8958      8956      8959      8958      8956      8960      8958      8956      8961
      8959      8956      8960      8959      8956      8961      8960      8956      8961
      8956      8961      8963      8956      8961      8969      8963      8961      8969
      8961      8963      8965      8961      8963      8966      8965      8963      8966
      8963      8966      8968      8963      8966      8972      8968      8966      8972
      8961      8969      8971      8961      8969      8972      8971      8969      8972
      8966      8972      8969      8966      8972      8974      8969      8972      8974
      8978      8976      8979      8978      8976      8980      8978      8976      8981
      8979      8976      8980      8979      8976      8981      8980      8976      8981
      8976      8981      8983      8976      8981      8989      8983      8981      8989
      8981      8983      8985      8981      8983      8986      8985      8983      8986
      8983      8986      8988      8983      8986      8992      8988      8986      8992
      8981      8989      8991      8981      8989      8992      8991      8989      8992
      8986      8992      8989      8986      8992      8994      8989      8992      8994
      8998      8996      8999      8998      8996      9000      8998      8996      9001
      8999      8996      9000      8999      8996      9001      9000      8996      9001
      8996      9001      9003      8996      9001      9009      9003      9001      9009
      9001      9003      9005      9001      9003      9006      9005      9003      9006
      9003      9006      9008      9003      9006      9012      9008      9006      9012
      9001      9009      9011      9001      9009      9012      9011      9009      9012
      9006      9012      9009      9006      9012      9014      9009      9012      9014
      9018      9016      9019      9018      9016      9020      9018      9016      9021
      9019      9016      9020      9019      9016      9021      9020      9016      9021
      9016      9021      9023      9016      9021      9029      9023      9021      9029
      9021      9023      9025      9021      9023      9026      9025      9023      9026
      9023      9026      9028      9023      9026      9032      9028      9026      9032
      9021      9029      9031      9021      9029      9032      9031      9029      9032
      9026      9032      9029      9026      9032      9034      9029      9032      9034
      9038      9036      9039      9038      9036      9040      9038      9036      9041
      9039      9036      9040      9039      9036      9041      9040      9036      9041
      9036      9041      9043      9036      9041      9049      9043      9041      9049
      9041      9043      9045      9041      9043      9046      9045      9043      9046
      9043      9046      9048      9043      9046      9052      9048      9046      9052
      9041      9049      9051      9041      9049      9052      9051      9049      9052
      9046      9052      9049      9046      9052      9054      9049      9052      9054
      9058      9056      9059      9058      9056      9060      9058      9056      9061
      9059      9056      9060      9059      9056      9061      9060      9056      9061
      9056      9061      9063      9056      9061      9069      9063      9061      9069
      9061      9063      9065      9061      9063      9066      9065      9063      9066
      9063      9066      9068      9063      9066      9072      9068      9066      9072
      9061      9069      9071      9061      9069      9072      9071      9069      9072
      9066      9072      9069      9066      9072      9074      9069      9072      9074
      9078      9076      9079      9078      9076      9080      9078      9076      9081
      9079      9076      9080      9079      9076      9081      9080      9076      9081
      9076      9081      9083      9076      9081      9089      9083      9081      9089
      9081      9083      9085      9081      9083      9086      9085      9083      9086
      9083      9086      9088      9083      9086      9092      9088      9086      9092
      9081      9089      9091      9081      9089      9092      9091      9089      9092
      9086      9092      9089      9086      9092      9094      9089      9092      9094
      9098      9096      9099      9098      9096      9100      9098      9096      9101
      9099      9096      9100      9099      9096      9101      9100      9096      9101
      9096      9101      9103      9096      9101      9109      9103      9101      9109
      9101      9103      9105      9101      9103      9106      9105      9103      9106
      9103      9106      9108      9103      9106      9112      9108      9106      9112
      9101      9109      9111      9101      9109      9112      9111      9109      9112
      9106      9112      9109      9106      9112      9114      9109      9112      9114
      9118      9116      9119      9118      9116      9120      9118      9116      9121
      9119      9116      9120      9119      9116      9121      9120      9116      9121
      9116      9121      9123      9116      9121      9129      9123      9121      9129
      9121      9123      9125      9121      9123      9126      9125      9123      9126
      9123      9126      9128      9123      9126      9132      9128      9126      9132
      9121      9129      9131      9121      9129      9132      9131      9129      9132
      9126      9132      9129      9126      9132      9134      9129      9132      9134
      9138      9136      9139      9138      9136      9140      9138      9136      9141
      9139      9136      9140      9139      9136      9141      9140      9136      9141
      9136      9141      9143      9136      9141      9149      9143      9141      9149
      9141      9143      9145      9141      9143      9146      9145      9143      9146
      9143      9146      9148      9143      9146      9152      9148      9146      9152
      9141      9149      9151      9141      9149      9152      9151      9149      9152
      9146      9152      9149      9146      9152      9154      9149      9152      9154
      9158      9156      9159      9158      9156      9160      9158      9156      9161
      9159      9156      9160      9159      9156      9161      9160      9156      9161
      9156      9161      9163      9156      9161      9169      9163      9161      9169
      9161      9163      9165      9161      9163      9166      9165      9163      9166
      9163      9166      9168      9163      9166      9172      9168      9166      9172
      9161      9169      9171      9161      9169      9172      9171      9169      9172
      9166      9172      9169      9166      9172      9174      9169      9172      9174
      9178      9176      9179      9178      9176      9180      9178      9176      9181
      9179      9176      9180      9179      9176      9181      9180      9176      9181
      9176      9181      9183      9176      9181      9189      9183      9181      9189
      9181      9183      9185      9181      9183      9186      9185      9183      9186
      9183      9186      9188      9183      9186      9192      9188      9186      9192
      9181      9189      9191      9181      9189      9192      9191      9189      9192
      9186      9192      9189      9186      9192      9194      9189      9192      9194
      9198      9196      9199      9198      9196      9200      9198      9196      9201
      9199      9196      9200      9199      9196      9201      9200      9196      9201
      9196      9201      9203      9196      9201      9209      9203      9201      9209
      9201      9203      9205      9201      9203      9206      9205      9203      9206
      9203      9206      9208      9203      9206      9212      9208      9206      9212
      9201      9209      9211      9201      9209      9212      9211      9209      9212
      9206      9212      9209      9206      9212      9214      9209      9212      9214
      9218      9216      9219      9218      9216      9220      9218      9216      9221
      9219      9216      9220      9219      9216      9221      9220      9216      9221
      9216      9221      9223      9216      9221      9229      9223      9221      9229
      9221      9223      9225      9221      9223      9226      9225      9223      9226
      9223      9226      9228      9223      9226      9232      9228      9226      9232
      9221      9229      9231      9221      9229      9232      9231      9229      9232
      9226      9232      9229      9226      9232      9234      9229      9232      9234
      9238      9236      9239      9238      9236      9240      9238      9236      9241
      9239      9236      9240      9239      9236      9241      9240      9236      9241
      9236      9241      9243      9236      9241      9249      9243      9241      9249
      9241      9243      9245      9241      9243      9246      9245      9243      9246
      9243      9246      9248      9243      9246      9252      9248      9246      9252
      9241      9249      9251      9241      9249      9252      9251      9249      9252
      9246      9252      9249      9246      9252      9254      9249      9252      9254
      9258      9256      9259      9258      9256      9260      9258      9256      9261
      9259      9256      9260      9259      9256      9261      9260      9256      9261
      9256      9261      9263      9256      9261      9269      9263      9261      9269
      9261      9263      9265      9261      9263      9266      9265      9263      9266
      9263      9266      9268      9263      9266      9272      9268      9266      9272
      9261      9269      9271      9261      9269      9272      9271      9269      9272
      9266      9272      9269      9266      9272      9274      9269      9272      9274
      9278      9276      9279      9278      9276      9280      9278      9276      9281
      9279      9276      9280      9279      9276      9281      9280      9276      9281
      9276      9281      9283      9276      9281      9289      9283      9281      9289
      9281      9283      9285      9281      9283      9286      9285      9283      9286
      9283      9286      9288      9283      9286      9292      9288      9286      9292
      9281      9289      9291      9281      9289      9292      9291      9289      9292
      9286      9292      9289      9286      9292      9294      9289      9292      9294
      9298      9296      9299      9298      9296      9300      9298      9296      9301
      9299      9296      9300      9299      9296      9301      9300      9296      9301
      9296      9301      9303      9296      9301      9309      9303      9301      9309
      9301      9303      9305      9301      9303      9306      9305      9303      9306
      9303      9306      9308      9303      9306      9312      9308      9306      9312
      9301      9309      9311      9301      9309      9312      9311      9309      9312
      9306      9312      9309      9306      9312      9314      9309      9312      9314
      9318      9316      9319      9318      9316      9320      9318      9316      9321
      9319      9316      9320      9319      9316      9321      9320      9316      9321
      9316      9321      9323      9316      9321      9329      9323      9321      9329
      9321      9323      9325      9321      9323      9326      9325      9323      9326
      9323      9326      9328      9323      9326      9332      9328      9326      9332
      9321      9329      9331      9321      9329      9332      9331      9329      9332
      9326      9332      9329      9326      9332      9334      9329      9332      9334
      9338      9336      9339      9338      9336      9340      9338      9336      9341
      9339      9336      9340      9339      9336      9341      9340      9336      9341
      9336      9341      9343      9336      9341      9349      9343      9341      9349
      9341      9343      9345      9341      9343      9346      9345      9343      9346
      9343      9346      9348      9343      9346      9352      9348      9346      9352
      9341      9349      9351      9341      9349      9352      9351      9349      9352
      9346      9352      9349      9346      9352      9354      9349      9352      9354
      9358      9356      9359      9358      9356      9360      9358      9356      9361
      9359      9356      9360      9359      9356      9361      9360      9356      9361
      9356      9361      9363      9356      9361      9369      9363      9361      9369
      9361      9363      9365      9361      9363      9366      9365      9363      9366
      9363      9366      9368      9363      9366      9372      9368      9366      9372
      9361      9369      9371      9361      9369      9372      9371      9369      9372
      9366      9372      9369      9366      9372      9374      9369      9372      9374
      9378      9376      9379      9378      9376      9380      9378      9376      9381
      9379      9376      9380      9379      9376      9381      9380      9376      9381
      9376      9381      9383      9376      9381      9389      9383      9381      9389
      9381      9383      9385      9381      9383      9386      9385      9383      9386
      9383      9386      9388      9383      9386      9392      9388      9386      9392
      9381      9389      9391      9381      9389      9392      9391      9389      9392
      9386      9392      9389      9386      9392      9394      9389      9392      9394
      9398      9396      9399      9398      9396      9400      9398      9396      9401
      9399      9396      9400      9399      9396      9401      9400      9396      9401
      9396      9401      9403      9396      9401      9409      9403      9401      9409
      9401      9403      9405      9401      9403      9406      9405      9403      9406
      9403      9406      9408      9403      9406      9412      9408      9406      9412
      9401      9409      9411      9401      9409      9412      9411      9409      9412
      9406      9412      9409      9406      9412      9414      9409      9412      9414
      9418      9416      9419      9418      9416      9420      9418      9416      9421
      9419      9416      9420      9419      9416      9421      9420      9416      9421
      9416      9421      9423      9416      9421      9429      9423      9421      9429
      9421      9423      9425      9421      9423      9426      9425      9423      9426
      9423      9426      9428      9423      9426      9432      9428      9426      9432
      9421      9429      9431      9421      9429      9432      9431      9429      9432
      9426      9432      9429      9426      9432      9434      9429      9432      9434
      9438      9436      9439      9438      9436      9440      9438      9436      9441
      9439      9436      9440      9439      9436      9441      9440      9436      9441
      9436      9441      9443      9436      9441      9449      9443      9441      9449
      9441      9443      9445      9441      9443      9446      9445      9443      9446
      9443      9446      9448      9443      9446      9452      9448      9446      9452
      9441      9449      9451      9441      9449      9452      9451      9449      9452
      9446      9452      9449      9446      9452      9454      9449      9452      9454
      9458      9456      9459      9458      9456      9460      9458      9456      9461
      9459      9456      9460      9459      9456      9461      9460      9456      9461
      9456      9461      9463      9456      9461      9469      9463      9461      9469
      9461      9463      9465      9461      9463      9466      9465      9463      9466
      9463      9466      9468      9463      9466      9472      9468      9466      9472
      9461      9469      9471      9461      9469      9472      9471      9469      9472
      9466      9472      9469      9466      9472      9474      9469      9472      9474
      9478      9476      9479      9478      9476      9480      9478      9476      9481
      9479      9476      9480      9479      9476      9481      9480      9476      9481
      9476      9481      9483      9476      9481      9489      9483      9481      9489
      9481      9483      9485      9481      9483      9486      9485      9483      9486
      9483      9486      9488      9483      9486      9492      9488      9486      9492
      9481      9489      9491      9481      9489      9492      9491      9489      9492
      9486      9492      9489      9486      9492      9494      9489      9492      9494
      9498      9496      9499      9498      9496      9500      9498      9496      9501
      9499      9496      9500      9499      9496      9501      9500      9496      9501
      9496      9501      9503      9496      9501      9509      9503      9501      9509
      9501      9503      9505      9501      9503      9506      9505      9503      9506
      9503      9506      9508      9503      9506      9512      9508      9506      9512
      9501      9509      9511      9501      9509      9512      9511      9509      9512
      9506      9512      9509      9506      9512      9514      9509      9512      9514
      9518      9516      9519      9518      9516      9520      9518      9516      9521
      9519      9516      9520      9519      9516      9521      9520      9516      9521
      9516      9521      9523      9516      9521      9529      9523      9521      9529
      9521      9523      9525      9521      9523      9526      9525      9523      9526
      9523      9526      9528      9523      9526      9532      9528      9526      9532
      9521      9529      9531      9521      9529      9532      9531      9529      9532
      9526      9532      9529      9526      9532      9534      9529      9532      9534
      9538      9536      9539      9538      9536      9540      9538      9536      9541
      9539      9536      9540      9539      9536      9541      9540      9536      9541
      9536      9541      9543      9536      9541      9549      9543      9541      9549
      9541      9543      9545      9541      9543      9546      9545      9543      9546
      9543      9546      9548      9543      9546      9552      9548      9546      9552
      9541      9549      9551      9541      9549      9552      9551      9549      9552
      9546      9552      9549      9546      9552      9554      9549      9552      9554
      9558      9556      9559      9558      9556      9560      9558      9556      9561
      9559      9556      9560      9559      9556      9561      9560      9556      9561
      9556      9561      9563      9556      9561      9569      9563      9561      9569
      9561      9563      9565      9561      9563      9566      9565      9563      9566
      9563      9566      9568      9563      9566      9572      9568      9566      9572
      9561      9569      9571      9561      9569      9572      9571      9569      9572
      9566      9572      9569      9566      9572      9574      9569      9572      9574
      9578      9576      9579      9578      9576      9580      9578      9576      9581
      9579      9576      9580      9579      9576      9581      9580      9576      9581
      9576      9581      9583      9576      9581      9589      9583      9581      9589
      9581      9583      9585      9581      9583      9586      9585      9583      9586
      9583      9586      9588      9583      9586      9592      9588      9586      9592
      9581      9589      9591      9581      9589      9592      9591      9589      9592
      9586      9592      9589      9586      9592      9594      9589      9592      9594
      9598      9596      9599      9598      9596      9600      9598      9596      9601
      9599      9596      9600      9599      9596      9601      9600      9596      9601
      9596      9601      9603      9596      9601      9609      9603      9601      9609
      9601      9603      9605      9601      9603      9606      9605      9603      9606
      9603      9606      9608      9603      9606      9612      9608      9606      9612
      9601      9609      9611      9601      9609      9612      9611      9609      9612
      9606      9612      9609      9606      9612      9614      9609      9612      9614
      9618      9616      9619      9618      9616      9620      9618      9616      9621
      9619      9616      9620      9619      9616      9621      9620      9616      9621
      9616      9621      9623      9616      9621      9629      9623      9621      9629
      9621      9623      9625      9621      9623      9626      9625      9623      9626
      9623      9626      9628      9623      9626      9632      9628      9626      9632
      9621      9629      9631      9621      9629      9632      9631      9629      9632
      9626      9632      9629      9626      9632      9634      9629      9632      9634
      9638      9636      9639      9638      9636      9640      9638      9636      9641
      9639      9636      9640      9639      9636      9641      9640      9636      9641
      9636      9641      9643      9636      9641      9649      9643      9641      9649
      9641      9643      9645      9641      9643      9646      9645      9643      9646
      9643      9646      9648      9643      9646      9652      9648      9646      9652
      9641      9649      9651      9641      9649      9652      9651      9649      9652
      9646      9652      9649      9646      9652      9654      9649      9652      9654
      9658      9656      9659      9658      9656      9660      9658      9656      9661
      9659      9656      9660      9659      9656      9661      9660      9656      9661
      9656      9661      9663      9656      9661      9669      9663      9661      9669
      9661      9663      9665      9661      9663      9666      9665      9663      9666
      9663      9666      9668      9663      9666      9672      9668      9666      9672
      9661      9669      9671      9661      9669      9672      9671      9669      9672
      9666      9672      9669      9666      9672      9674      9669      9672      9674
      9678      9676      9679      9678      9676      9680      9678      9676      9681
      9679      9676      9680      9679      9676      9681      9680      9676      9681
      9676      9681      9683      9676      9681      9689      9683      9681      9689
      9681      9683      9685      9681      9683      9686      9685      9683      9686
      9683      9686      9688      9683      9686      9692      9688      9686      9692
      9681      9689      9691      9681      9689      9692      9691      9689      9692
      9686      9692      9689      9686      9692      9694      9689      9692      9694
      9698      9696      9699      9698      9696      9700      9698      9696      9701
      9699      9696      9700      9699      9696      9701      9700      9696      9701
      9696      9701      9703      9696      9701      9709      9703      9701      9709
      9701      9703      9705      9701      9703      9706      9705      9703      9706
      9703      9706      9708      9703      9706      9712      9708      9706      9712
      9701      9709      9711      9701      9709      9712      9711      9709      9712
      9706      9712      9709      9706      9712      9714      9709      9712      9714
      9718      9716      9719      9718      9716      9720      9718      9716      9721
      9719      9716      9720      9719      9716      9721      9720      9716      9721
      9716      9721      9723      9716      9721      9729      9723      9721      9729
      9721      9723      9725      9721      9723      9726      9725      9723      9726
      9723      9726      9728      9723      9726      9732      9728      9726      9732
      9721      9729      9731      9721      9729      9732      9731      9729      9732
      9726      9732      9729      9726      9732      9734      9729      9732      9734
      9738      9736      9739      9738      9736      9740      9738      9736      9741
      9739      9736      9740      9739      9736      9741      9740      9736      9741
      9736      9741      9743      9736      9741      9749      9743      9741      9749
      9741      9743      9745      9741      9743      9746      9745      9743      9746
      9743      9746      9748      9743      9746      9752      9748      9746      9752
      9741      9749      9751      9741      9749      9752      9751      9749      9752
      9746      9752      9749      9746      9752      9754      9749      9752      9754
      9758      9756      9759      9758      9756      9760      9758      9756      9761
      9759      9756      9760      9759      9756      9761      9760      9756      9761
      9756      9761      9763      9756      9761      9769      9763      9761      9769
      9761      9763      9765      9761      9763      9766      9765      9763      9766
      9763      9766      9768      9763      9766      9772      9768      9766      9772
      9761      9769      9771      9761      9769      9772      9771      9769      9772
      9766      9772      9769      9766      9772      9774      9769      9772      9774
      9778      9776      9779      9778      9776      9780      9778      9776      9781
      9779      9776      9780      9779      9776      9781      9780      9776      9781
      9776      9781      9783      9776      9781      9789      9783      9781      9789
      9781      9783      9785      9781      9783      9786      9785      9783      9786
      9783      9786      9788      9783      9786      9792      9788      9786      9792
      9781      9789      9791      9781      9789      9792      9791      9789      9792
      9786      9792      9789      9786      9792      9794      9789      9792      9794
      9798      9796      9799      9798      9796      9800      9798      9796      9801
      9799      9796      9800      9799      9796      9801      9800      9796      9801
      9796      9801      9803      9796      9801      9809      9803      9801      9809
      9801      9803      9805      9801      9803      9806      9805      9803      9806
      9803      9806      9808      9803      9806      9812      9808      9806      9812
      9801      9809      9811      9801      9809      9812      9811      9809      9812
      9806      9812      9809      9806      9812      9814      9809      9812      9814
      9818      9816      9819      9818      9816      9820      9818      9816      9821
      9819      9816      9820      9819      9816      9821      9820      9816      9821
      9816      9821      9823      9816      9821      9829      9823      9821      9829
      9821      9823      9825      9821      9823      9826      9825      9823      9826
      9823      9826      9828      9823      9826      9832      9828      9826      9832
      9821      9829      9831      9821      9829      9832      9831      9829      9832
      9826      9832      9829      9826      9832      9834      9829      9832      9834
      9838      9836      9839      9838      9836      9840      9838      9836      9841
      9839      9836      9840      9839      9836      9841      9840      9836      9841
      9836      9841      9843      9836      9841      9849      9843      9841      9849
      9841      9843      9845      9841      9843      9846      9845      9843      9846
      9843      9846      9848      9843      9846      9852      9848      9846      9852
      9841      9849      9851      9841      9849      9852      9851      9849      9852
      9846      9852      9849      9846      9852      9854      9849      9852      9854
      9858      9856      9859      9858      9856      9860      9858      9856      9861
      9859      9856      9860      9859      9856      9861      9860      9856      9861
      9856      9861      9863      9856      9861      9869      9863      9861      9869
      9861      9863      9865      9861      9863      9866      9865      9863      9866
      9863      9866      9868      9863      9866      9872      9868      9866      9872
      9861      9869      9871      9861      9869      9872      9871      9869      9872
      9866      9872      9869      9866      9872      9874      9869      9872      9874
      9878      9876      9879      9878      9876      9880      9878      9876      9881
      9879      9876      9880      9879      9876      9881      9880      9876      9881
      9876      9881      9883      9876      9881      9889      9883      9881      9889
      9881      9883      9885      9881      9883      9886      9885      9883      9886
      9883      9886      9888      9883      9886      9892      9888      9886      9892
      9881      9889      9891      9881      9889      9892      9891      9889      9892
      9886      9892      9889      9886      9892      9894      9889      9892      9894
      9898      9896      9899      9898      9896      9900      9898      9896      9901
      9899      9896      9900      9899      9896      9901      9900      9896      9901
      9896      9901      9903      9896      9901      9909      9903      9901      9909
      9901      9903      9905      9901      9903      9906      9905      9903      9906
      9903      9906      9908      9903      9906      9912      9908      9906      9912
      9901      9909      9911      9901      9909      9912      9911      9909      9912
      9906      9912      9909      9906      9912      9914      9909      9912      9914
      9918      9916      9919      9918      9916      9920      9918      9916      9921
      9919      9916      9920      9919      9916      9921      9920      9916      9921
      9916      9921      9923      9916      9921      9929      9923      9921      9929
      9921      9923      9925      9921      9923      9926      9925      9923      9926
      9923      9926      9928      9923      9926      9932      9928      9926      9932
      9921      9929      9931      9921      9929      9932      9931      9929      9932
      9926      9932      9929      9926      9932      9934      9929      9932      9934
      9938      9936      9939      9938      9936      9940      9938      9936      9941
      9939      9936      9940      9939      9936      9941      9940      9936      9941
      9936      9941      9943      9936      9941      9949      9943      9941      9949
      9941      9943      9945      9941      9943      9946      9945      9943      9946
      9943      9946      9948      9943      9946      9952      9948      9946      9952
      9941      9949      9951      9941      9949      9952      9951      9949      9952
      9946      9952      9949      9946      9952      9954      9949      9952      9954
      9958      9956      9959      9958      9956      9960      9958      9956      9961
      9959      9956      9960      9959      9956      9961      9960      9956      9961
      9956      9961      9963      9956      9961      9969      9963      9961      9969
      9961      9963      9965      9961      9963      9966      9965      9963      9966
      9963      9966      9968      9963      9966      9972      9968      9966      9972
      9961      9969      9971      9961      9969      9972      9971      9969      9972
      9966      9972      9969      9966      9972      9974      9969      9972      9974
      9978      9976      9979      9978      9976      9980      9978      9976      9981
      9979      9976      9980      9979      9976      9981      9980      9976      9981
      9976      9981      9983      9976      9981      9989      9983      9981      9989
      9981      9983      9985      9981      9983      9986      9985      9983      9986
      9983      9986      9988      9983      9986      9992      9988      9986      9992
      9981      9989      9991      9981      9989      9992      9991      9989      9992
      9986      9992      9989      9986      9992      9994      9989      9992      9994
      9998      9996      9999      9998      9996     10000      9998      9996     10001
      9999      9996     10000      9999      9996     10001     10000      9996     10001
      9996     10001     10003      9996     10001     10009     10003     10001     10009
     10001     10003     10005     10001     10003     10006     10005     10003     10006
     10003     10006     10008     10003     10006     10012     10008     10006     10012
     10001     10009     10011     10001     10009     10012     10011     10009     10012
     10006     10012     10009     10006     10012     10014     10009     10012     10014
     10018     10016     10019     10018     10016     10020     10018     10016     10021
     10019     10016     10020     10019     10016     10021     10020     10016     10021
     10016     10021     10023     10016     10021     10029     10023     10021     10029
     10021     10023     10025     10021     10023     10026     10025     10023     10026
     10023     10026     10028     10023     10026     10032     10028     10026     10032
     10021     10029     10031     10021     10029     10032     10031     10029     10032
     10026     10032     10029     10026     10032     10034     10029     10032     10034
     10038     10036     10039     10038     10036     10040     10038     10036     10041
     10039     10036     10040     10039     10036     10041     10040     10036     10041
     10036     10041     10043     10036     10041     10049     10043     10041     10049
     10041     10043     10045     10041     10043     10046     10045     10043     10046
     10043     10046     10048     10043     10046     10052     10048     10046     10052
     10041     10049     10051     10041     10049     10052     10051     10049     10052
     10046     10052     10049     10046     10052     10054     10049     10052     10054
     10058     10056     10059     10058     10056     10060     10058     10056     10061
     10059     10056     10060     10059     10056     10061     10060     10056     10061
     10056     10061     10063     10056     10061     10069     10063     10061     10069
     10061     10063     10065     10061     10063     10066     10065     10063     10066
     10063     10066     10068     10063     10066     10072     10068     10066     10072
     10061     10069     10071     10061     10069     10072     10071     10069     10072
     10066     10072     10069     10066     10072     10074     10069     10072     10074
     10078     10076     10079     10078     10076     10080     10078     10076     10081
     10079     10076     10080     10079     10076     10081     10080     10076     10081
     10076     10081     10083     10076     10081     10089     10083     10081     10089
     10081     10083     10085     10081     10083     10086     10085     10083     10086
     10083     10086     10088     10083     10086     10092     10088     10086     10092
     10081     10089     10091     10081     10089     10092     10091     10089     10092
     10086     10092     10089     10086     10092     10094     10089     10092     10094
     10098     10096     10099     10098     10096     10100     10098     10096     10101
     10099     10096     10100     10099     10096     10101     10100     10096     10101
     10096     10101     10103     10096     10101     10109     10103     10101     10109
     10101     10103     10105     10101     10103     10106     10105     10103     10106
     10103     10106     10108     10103     10106     10112     10108     10106     10112
     10101     10109     10111     10101     10109     10112     10111     10109     10112
     10106     10112     10109     10106     10112     10114     10109     10112     10114
     10118     10116     10119     10118     10116     10120     10118     10116     10121
     10119     10116     10120     10119     10116     10121     10120     10116     10121
     10116     10121     10123     10116     10121     10129     10123     10121     10129
     10121     10123     10125     10121     10123     10126     10125     10123     10126
     10123     10126     10128     10123     10126     10132     10128     10126     10132
     10121     10129     10131     10121     10129     10132     10131     10129     10132
     10126     10132     10129     10126     10132     10134     10129     10132     10134
     10138     10136     10139     10138     10136     10140     10138     10136     10141
     10139     10136     10140     10139     10136     10141     10140     10136     10141
     10136     10141     10143     10136     10141     10149     10143     10141     10149
     10141     10143     10145     10141     10143     10146     10145     10143     10146
     10143     10146     10148     10143     10146     10152     10148     10146     10152
     10141     10149     10151     10141     10149     10152     10151     10149     10152
     10146     10152     10149     10146     10152     10154     10149     10152     10154
     10158     10156     10159     10158     10156     10160     10158     10156     10161
     10159     10156     10160     10159     10156     10161     10160     10156     10161
     10156     10161     10163     10156     10161     10169     10163     10161     10169
     10161     10163     10165     10161     10163     10166     10165     10163     10166
     10163     10166     10168     10163     10166     10172     10168     10166     10172
     10161     10169     10171     10161     10169     10172     10171     10169     10172
     10166     10172     10169     10166     10172     10174     10169     10172     10174
     10178     10176     10179     10178     10176     10180     10178     10176     10181
     10179     10176     10180     10179     10176     10181     10180     10176     10181
     10176     10181     10183     10176     10181     10189     10183     10181     10189
     10181     10183     10185     10181     10183     10186     10185     10183     10186
     10183     10186     10188     10183     10186     10192     10188     10186     10192
     10181     10189     10191     10181     10189     10192     10191     10189     10192
     10186     10192     10189     10186     10192     10194     10189     10192     10194
     10198     10196     10199     10198     10196     10200     10198     10196     10201
     10199     10196     10200     10199     10196     10201     10200     10196     10201
     10196     10201     10203     10196     10201     10209     10203     10201     10209
     10201     10203     10205     10201     10203     10206     10205     10203     10206
     10203     10206     10208     10203     10206     10212     10208     10206     10212
     10201     10209     10211     10201     10209     10212     10211     10209     10212
     10206     10212     10209     10206     10212     10214     10209     10212     10214
     10218     10216     10219     10218     10216     10220     10218     10216     10221
     10219     10216     10220     10219     10216     10221     10220     10216     10221
     10216     10221     10223     10216     10221     10229     10223     10221     10229
     10221     10223     10225     10221     10223     10226     10225     10223     10226
     10223     10226     10228     10223     10226     10232     10228     10226     10232
     10221     10229     10231     10221     10229     10232     10231     10229     10232
     10226     10232     10229     10226     10232     10234     10229     10232     10234
     10238     10236     10239     10238     10236     10240     10238     10236     10241
     10239     10236     10240     10239     10236     10241     10240     10236     10241
     10236     10241     10243     10236     10241     10249     10243     10241     10249
     10241     10243     10245     10241     10243     10246     10245     10243     10246
     10243     10246     10248     10243     10246     10252     10248     10246     10252
     10241     10249     10251     10241     10249     10252     10251     10249     10252
     10246     10252     10249     10246     10252     10254     10249     10252     10254
     10258     10256     10259     10258     10256     10260     10258     10256     10261
     10259     10256     10260     10259     10256     10261     10260     10256     10261
     10256     10261     10263     10256     10261     10269     10263     10261     10269
     10261     10263     10265     10261     10263     10266     10265     10263     10266
     10263     10266     10268     10263     10266     10272     10268     10266     10272
     10261     10269     10271     10261     10269     10272     10271     10269     10272
     10266     10272     10269     10266     10272     10274     10269     10272     10274
     10278     10276     10279     10278     10276     10280     10278     10276     10281
     10279     10276     10280     10279     10276     10281     10280     10276     10281
     10276     10281     10283     10276     10281     10289     10283     10281     10289
     10281     10283     10285     10281     10283     10286     10285     10283     10286
     10283     10286     10288     10283     10286     10292     10288     10286     10292
     10281     10289     10291     10281     10289     10292     10291     10289     10292
     10286     10292     10289     10286     10292     10294     10289     10292     10294
     10298     10296     10299     10298     10296     10300     10298     10296     10301
     10299     10296     10300     10299     10296     10301     10300     10296     10301
     10296     10301     10303     10296     10301     10309     10303     10301     10309
     10301     10303     10305     10301     10303     10306     10305     10303     10306
     10303     10306     10308     10303     10306     10312     10308     10306     10312
     10301     10309     10311     10301     10309     10312     10311     10309     10312
     10306     10312     10309     10306     10312     10314     10309     10312     10314
     10318     10316     10319     10318     10316     10320     10318     10316     10321
     10319     10316     10320     10319     10316     10321     10320     10316     10321
     10316     10321     10323     10316     10321     10329     10323     10321     10329
     10321     10323     10325     10321     10323     10326     10325     10323     10326
     10323     10326     10328     10323     10326     10332     10328     10326     10332
     10321     10329     10331     10321     10329     10332     10331     10329     10332
     10326     10332     10329     10326     10332     10334     10329     10332     10334
     10338     10336     10339     10338     10336     10340     10338     10336     10341
     10339     10336     10340     10339     10336     10341     10340     10336     10341
     10336     10341     10343     10336     10341     10349     10343     10341     10349
     10341     10343     10345     10341     10343     10346     10345     10343     10346
     10343     10346     10348     10343     10346     10352     10348     10346     10352
     10341     10349     10351     10341     10349     10352     10351     10349     10352
     10346     10352     10349     10346     10352     10354     10349     10352     10354
     10358     10356     10359     10358     10356     10360     10358     10356     10361
     10359     10356     10360     10359     10356     10361     10360     10356     10361
     10356     10361     10363     10356     10361     10369     10363     10361     10369
     10361     10363     10365     10361     10363     10366     10365     10363     10366
     10363     10366     10368     10363     10366     10372     10368     10366     10372
     10361     10369     10371     10361     10369     10372     10371     10369     10372
     10366     10372     10369     10366     10372     10374     10369     10372     10374
     10378     10376     10379     10378     10376     10380     10378     10376     10381
     10379     10376     10380     10379     10376     10381     10380     10376     10381
     10376     10381     10383     10376     10381     10389     10383     10381     10389
     10381     10383     10385     10381     10383     10386     10385     10383     10386
     10383     10386     10388     10383     10386     10392     10388     10386     10392
     10381     10389     10391     10381     10389     10392     10391     10389     10392
     10386     10392     10389     10386     10392     10394     10389     10392     10394
     10398     10396     10399     10398     10396     10400     10398     10396     10401
     10399     10396     10400     10399     10396     10401     10400     10396     10401
     10396     10401     10403     10396     10401     10409     10403     10401     10409
     10401     10403     10405     10401     10403     10406     10405     10403     10406
     10403     10406     10408     10403     10406     10412     10408     10406     10412
     10401     10409     10411     10401     10409     10412     10411     10409     10412
     10406     10412     10409     10406     10412     10414     10409     10412     10414
     10418     10416     10419     10418     10416     10420     10418     10416     10421
     10419     10416     10420     10419     10416     10421     10420     10416     10421
     10416     10421     10423     10416     10421     10429     10423     10421     10429
     10421     10423     10425     10421     10423     10426     10425     10423     10426
     10423     10426     10428     10423     10426     10432     10428     10426     10432
     10421     10429     10431     10421     10429     10432     10431     10429     10432
     10426     10432     10429     10426     10432     10434     10429     10432     10434
     10438     10436     10439     10438     10436     10440     10438     10436     10441
     10439     10436     10440     10439     10436     10441     10440     10436     10441
     10436     10441     10443     10436     10441     10449     10443     10441     10449
     10441     10443     10445     10441     10443     10446     10445     10443     10446
     10443     10446     10448     10443     10446     10452     10448     10446     10452
     10441     10449     10451     10441     10449     10452     10451     10449     10452
     10446     10452     10449     10446     10452     10454     10449     10452     10454
     10458     10456     10459     10458     10456     10460     10458     10456     10461
     10459     10456     10460     10459     10456     10461     10460     10456     10461
     10456     10461     10463     10456     10461     10469     10463     10461     10469
     10461     10463     10465     10461     10463     10466     10465     10463     10466
     10463     10466     10468     10463     10466     10472     10468     10466     10472
     10461     10469     10471     10461     10469     10472     10471     10469     10472
     10466     10472     10469     10466     10472     10474     10469     10472     10474
     10478     10476     10479     10478     10476     10480     10478     10476     10481
     10479     10476     10480     10479     10476     10481     10480     10476     10481
     10476     10481     10483     10476     10481     10489     10483     10481     10489
     10481     10483     10485     10481     10483     10486     10485     10483     10486
     10483     10486     10488     10483     10486     10492     10488     10486     10492
     10481     10489     10491     10481     10489     10492     10491     10489     10492
     10486     10492     10489     10486     10492     10494     10489     10492     10494
     10498     10496     10499     10498     10496     10500     10498     10496     10501
     10499     10496     10500     10499     10496     10501     10500     10496     10501
     10496     10501     10503     10496     10501     10509     10503     10501     10509
     10501     10503     10505     10501     10503     10506     10505     10503     10506
     10503     10506     10508     10503     10506     10512     10508     10506     10512
     10501     10509     10511     10501     10509     10512     10511     10509     10512
     10506     10512     10509     10506     10512     10514     10509     10512     10514
     10518     10516     10519     10518     10516     10520     10518     10516     10521
     10519     10516     10520     10519     10516     10521     10520     10516     10521
     10516     10521     10523     10516     10521     10529     10523     10521     10529
     10521     10523     10525     10521     10523     10526     10525     10523     10526
     10523     10526     10528     10523     10526     10532     10528     10526     10532
     10521     10529     10531     10521     10529     10532     10531     10529     10532
     10526     10532     10529     10526     10532     10534     10529     10532     10534
     10538     10536     10539     10538     10536     10540     10538     10536     10541
     10539     10536     10540     10539     10536     10541     10540     10536     10541
     10536     10541     10543     10536     10541     10549     10543     10541     10549
     10541     10543     10545     10541     10543     10546     10545     10543     10546
     10543     10546     10548     10543     10546     10552     10548     10546     10552
     10541     10549     10551     10541     10549     10552     10551     10549     10552
     10546     10552     10549     10546     10552     10554     10549     10552     10554
     10558     10556     10559     10558     10556     10560     10558     10556     10561
     10559     10556     10560     10559     10556     10561     10560     10556     10561
     10556     10561     10563     10556     10561     10569     10563     10561     10569
     10561     10563     10565     10561     10563     10566     10565     10563     10566
     10563     10566     10568     10563     10566     10572     10568     10566     10572
     10561     10569     10571     10561     10569     10572     10571     10569     10572
     10566     10572     10569     10566     10572     10574     10569     10572     10574
     10578     10576     10579     10578     10576     10580     10578     10576     10581
     10579     10576     10580     10579     10576     10581     10580     10576     10581
     10576     10581     10583     10576     10581     10589     10583     10581     10589
     10581     10583     10585     10581     10583     10586     10585     10583     10586
     10583     10586     10588     10583     10586     10592     10588     10586     10592
     10581     10589     10591     10581     10589     10592     10591     10589     10592
     10586     10592     10589     10586     10592     10594     10589     10592     10594
     10598     10596     10599     10598     10596     10600     10598     10596     10601
     10599     10596     10600     10599     10596     10601     10600     10596     10601
     10596     10601     10603     10596     10601     10609     10603     10601     10609
     10601     10603     10605     10601     10603     10606     10605     10603     10606
     10603     10606     10608     10603     10606     10612     10608     10606     10612
     10601     10609     10611     10601     10609     10612     10611     10609     10612
     10606     10612     10609     10606     10612     10614     10609     10612     10614
     10618     10616     10619     10618     10616     10620     10618     10616     10621
     10619     10616     10620     10619     10616     10621     10620     10616     10621
     10616     10621     10623     10616     10621     10629     10623     10621     10629
     10621     10623     10625     10621     10623     10626     10625     10623     10626
     10623     10626     10628     10623     10626     10632     10628     10626     10632
     10621     10629     10631     10621     10629     10632     10631     10629     10632
     10626     10632     10629     10626     10632     10634     10629     10632     10634
     10638     10636     10639     10638     10636     10640     10638     10636     10641
     10639     10636     10640     10639     10636     10641     10640     10636     10641
     10636     10641     10643     10636     10641     10649     10643     10641     10649
     10641     10643     10645     10641     10643     10646     10645     10643     10646
     10643     10646     10648     10643     10646     10652     10648     10646     10652
     10641     10649     10651     10641     10649     10652     10651     10649     10652
     10646     10652     10649     10646     10652     10654     10649     10652     10654
     10658     10656     10659     10658     10656     10660     10658     10656     10661
     10659     10656     10660     10659     10656     10661     10660     10656     10661
     10656     10661     10663     10656     10661     10669     10663     10661     10669
     10661     10663     10665     10661     10663     10666     10665     10663     10666
     10663     10666     10668     10663     10666     10672     10668     10666     10672
     10661     10669     10671     10661     10669     10672     10671     10669     10672
     10666     10672     10669     10666     10672     10674     10669     10672     10674
     10678     10676     10679     10678     10676     10680     10678     10676     10681
     10679     10676     10680     10679     10676     10681     10680     10676     10681
     10676     10681     10683     10676     10681     10689     10683     10681     10689
     10681     10683     10685     10681     10683     10686     10685     10683     10686
     10683     10686     10688     10683     10686     10692     10688     10686     10692
     10681     10689     10691     10681     10689     10692     10691     10689     10692
     10686     10692     10689     10686     10692     10694     10689     10692     10694
     10698     10696     10699     10698     10696     10700     10698     10696     10701
     10699     10696     10700     10699     10696     10701     10700     10696     10701
     10696     10701     10703     10696     10701     10709     10703     10701     10709
     10701     10703     10705     10701     10703     10706     10705     10703     10706
     10703     10706     10708     10703     10706     10712     10708     10706     10712
     10701     10709     10711     10701     10709     10712     10711     10709     10712
     10706     10712     10709     10706     10712     10714     10709     10712     10714
     10718     10716     10719     10718     10716     10720     10718     10716     10721
     10719     10716     10720     10719     10716     10721     10720     10716     10721
     10716     10721     10723     10716     10721     10729     10723     10721     10729
     10721     10723     10725     10721     10723     10726     10725     10723     10726
     10723     10726     10728     10723     10726     10732     10728     10726     10732
     10721     10729     10731     10721     10729     10732     10731     10729     10732
     10726     10732     10729     10726     10732     10734     10729     10732     10734
     10738     10736     10739     10738     10736     10740     10738     10736     10741
     10739     10736     10740     10739     10736     10741     10740     10736     10741
     10736     10741     10743     10736     10741     10749     10743     10741     10749
     10741     10743     10745     10741     10743     10746     10745     10743     10746
     10743     10746     10748     10743     10746     10752     10748     10746     10752
     10741     10749     10751     10741     10749     10752     10751     10749     10752
     10746     10752     10749     10746     10752     10754     10749     10752     10754
     10758     10756     10759     10758     10756     10760     10758     10756     10761
     10759     10756     10760     10759     10756     10761     10760     10756     10761
     10756     10761     10763     10756     10761     10769     10763     10761     10769
     10761     10763     10765     10761     10763     10766     10765     10763     10766
     10763     10766     10768     10763     10766     10772     10768     10766     10772
     10761     10769     10771     10761     10769     10772     10771     10769     10772
     10766     10772     10769     10766     10772     10774     10769     10772     10774
     10778     10776     10779     10778     10776     10780     10778     10776     10781
     10779     10776     10780     10779     10776     10781     10780     10776     10781
     10776     10781     10783     10776     10781     10789     10783     10781     10789
     10781     10783     10785     10781     10783     10786     10785     10783     10786
     10783     10786     10788     10783     10786     10792     10788     10786     10792
     10781     10789     10791     10781     10789     10792     10791     10789     10792
     10786     10792     10789     10786     10792     10794     10789     10792     10794
     10798     10796     10799     10798     10796     10800     10798     10796     10801
     10799     10796     10800     10799     10796     10801     10800     10796     10801
     10796     10801     10803     10796     10801     10809     10803     10801     10809
     10801     10803     10805     10801     10803     10806     10805     10803     10806
     10803     10806     10808     10803     10806     10812     10808     10806     10812
     10801     10809     10811     10801     10809     10812     10811     10809     10812
     10806     10812     10809     10806     10812     10814     10809     10812     10814
     10818     10816     10819     10818     10816     10820     10818     10816     10821
     10819     10816     10820     10819     10816     10821     10820     10816     10821
     10816     10821     10823     10816     10821     10829     10823     10821     10829
     10821     10823     10825     10821     10823     10826     10825     10823     10826
     10823     10826     10828     10823     10826     10832     10828     10826     10832
     10821     10829     10831     10821     10829     10832     10831     10829     10832
     10826     10832     10829     10826     10832     10834     10829     10832     10834
     10838     10836     10839     10838     10836     10840     10838     10836     10841
     10839     10836     10840     10839     10836     10841     10840     10836     10841
     10836     10841     10843     10836     10841     10849     10843     10841     10849
     10841     10843     10845     10841     10843     10846     10845     10843     10846
     10843     10846     10848     10843     10846     10852     10848     10846     10852
     10841     10849     10851     10841     10849     10852     10851     10849     10852
     10846     10852     10849     10846     10852     10854     10849     10852     10854
     10858     10856     10859     10858     10856     10860     10858     10856     10861
     10859     10856     10860     10859     10856     10861     10860     10856     10861
     10856     10861     10863     10856     10861     10869     10863     10861     10869
     10861     10863     10865     10861     10863     10866     10865     10863     10866
     10863     10866     10868     10863     10866     10872     10868     10866     10872
     10861     10869     10871     10861     10869     10872     10871     10869     10872
     10866     10872     10869     10866     10872     10874     10869     10872     10874
     10878     10876     10879     10878     10876     10880     10878     10876     10881
     10879     10876     10880     10879     10876     10881     10880     10876     10881
     10876     10881     10883     10876     10881     10889     10883     10881     10889
     10881     10883     10885     10881     10883     10886     10885     10883     10886
     10883     10886     10888     10883     10886     10892     10888     10886     10892
     10881     10889     10891     10881     10889     10892     10891     10889     10892
     10886     10892     10889     10886     10892     10894     10889     10892     10894
     10898     10896     10899     10898     10896     10900     10898     10896     10901
     10899     10896     10900     10899     10896     10901     10900     10896     10901
     10896     10901     10903     10896     10901     10909     10903     10901     10909
     10901     10903     10905     10901     10903     10906     10905     10903     10906
     10903     10906     10908     10903     10906     10912     10908     10906     10912
     10901     10909     10911     10901     10909     10912     10911     10909     10912
     10906     10912     10909     10906     10912     10914     10909     10912     10914
     10918     10916     10919     10918     10916     10920     10918     10916     10921
     10919     10916     10920     10919     10916     10921     10920     10916     10921
     10916     10921     10923     10916     10921     10929     10923     10921     10929
     10921     10923     10925     10921     10923     10926     10925     10923     10926
     10923     10926     10928     10923     10926     10932     10928     10926     10932
     10921     10929     10931     10921     10929     10932     10931     10929     10932
     10926     10932     10929     10926     10932     10934     10929     10932     10934
     10938     10936     10939     10938     10936     10940     10938     10936     10941
     10939     10936     10940     10939     10936     10941     10940     10936     10941
     10936     10941     10943     10936     10941     10949     10943     10941     10949
     10941     10943     10945     10941     10943     10946     10945     10943     10946
     10943     10946     10948     10943     10946     10952     10948     10946     10952
     10941     10949     10951     10941     10949     10952     10951     10949     10952
     10946     10952     10949     10946     10952     10954     10949     10952     10954
     10958     10956     10959     10958     10956     10960     10958     10956     10961
     10959     10956     10960     10959     10956     10961     10960     10956     10961
     10956     10961     10963     10956     10961     10969     10963     10961     10969
     10961     10963     10965     10961     10963     10966     10965     10963     10966
     10963     10966     10968     10963     10966     10972     10968     10966     10972
     10961     10969     10971     10961     10969     10972     10971     10969     10972
     10966     10972     10969     10966     10972     10974     10969     10972     10974
     10978     10976     10979     10978     10976     10980     10978     10976     10981
     10979     10976     10980     10979     10976     10981     10980     10976     10981
     10976     10981     10983     10976     10981     10989     10983     10981     10989
     10981     10983     10985     10981     10983     10986     10985     10983     10986
     10983     10986     10988     10983     10986     10992     10988     10986     10992
     10981     10989     10991     10981     10989     10992     10991     10989     10992
     10986     10992     10989     10986     10992     10994     10989     10992     10994
     10998     10996     10999     10998     10996     11000     10998     10996     11001
     10999     10996     11000     10999     10996     11001     11000     10996     11001
     10996     11001     11003     10996     11001     11009     11003     11001     11009
     11001     11003     11005     11001     11003     11006     11005     11003     11006
     11003     11006     11008     11003     11006     11012     11008     11006     11012
     11001     11009     11011     11001     11009     11012     11011     11009     11012
     11006     11012     11009     11006     11012     11014     11009     11012     11014
     11018     11016     11019     11018     11016     11020     11018     11016     11021
     11019     11016     11020     11019     11016     11021     11020     11016     11021
     11016     11021     11023     11016     11021     11029     11023     11021     11029
     11021     11023     11025     11021     11023     11026     11025     11023     11026
     11023     11026     11028     11023     11026     11032     11028     11026     11032
     11021     11029     11031     11021     11029     11032     11031     11029     11032
     11026     11032     11029     11026     11032     11034     11029     11032     11034
     11038     11036     11039     11038     11036     11040     11038     11036     11041
     11039     11036     11040     11039     11036     11041     11040     11036     11041
     11036     11041     11043     11036     11041     11049     11043     11041     11049
     11041     11043     11045     11041     11043     11046     11045     11043     11046
     11043     11046     11048     11043     11046     11052     11048     11046     11052
     11041     11049     11051     11041     11049     11052     11051     11049     11052
     11046     11052     11049     11046     11052     11054     11049     11052     11054
     11058     11056     11059     11058     11056     11060     11058     11056     11061
     11059     11056     11060     11059     11056     11061     11060     11056     11061
     11056     11061     11063     11056     11061     11069     11063     11061     11069
     11061     11063     11065     11061     11063     11066     11065     11063     11066
     11063     11066     11068     11063     11066     11072     11068     11066     11072
     11061     11069     11071     11061     11069     11072     11071     11069     11072
     11066     11072     11069     11066     11072     11074     11069     11072     11074
     11078     11076     11079     11078     11076     11080     11078     11076     11081
     11079     11076     11080     11079     11076     11081     11080     11076     11081
     11076     11081     11083     11076     11081     11089     11083     11081     11089
     11081     11083     11085     11081     11083     11086     11085     11083     11086
     11083     11086     11088     11083     11086     11092     11088     11086     11092
     11081     11089     11091     11081     11089     11092     11091     11089     11092
     11086     11092     11089     11086     11092     11094     11089     11092     11094
     11098     11096     11099     11098     11096     11100     11098     11096     11101
     11099     11096     11100     11099     11096     11101     11100     11096     11101
     11096     11101     11103     11096     11101     11109     11103     11101     11109
     11101     11103     11105     11101     11103     11106     11105     11103     11106
     11103     11106     11108     11103     11106     11112     11108     11106     11112
     11101     11109     11111     11101     11109     11112     11111     11109     11112
     11106     11112     11109     11106     11112     11114     11109     11112     11114
     11118     11116     11119     11118     11116     11120     11118     11116     11121
     11119     11116     11120     11119     11116     11121     11120     11116     11121
     11116     11121     11123     11116     11121     11129     11123     11121     11129
     11121     11123     11125     11121     11123     11126     11125     11123     11126
     11123     11126     11128     11123     11126     11132     11128     11126     11132
     11121     11129     11131     11121     11129     11132     11131     11129     11132
     11126     11132     11129     11126     11132     11134     11129     11132     11134
     11138     11136     11139     11138     11136     11140     11138     11136     11141
     11139     11136     11140     11139     11136     11141     11140     11136     11141
     11136     11141     11143     11136     11141     11149     11143     11141     11149
     11141     11143     11145     11141     11143     11146     11145     11143     11146
     11143     11146     11148     11143     11146     11152     11148     11146     11152
     11141     11149     11151     11141     11149     11152     11151     11149     11152
     11146     11152     11149     11146     11152     11154     11149     11152     11154
     11158     11156     11159     11158     11156     11160     11158     11156     11161
     11159     11156     11160     11159     11156     11161     11160     11156     11161
     11156     11161     11163     11156     11161     11169     11163     11161     11169
     11161     11163     11165     11161     11163     11166     11165     11163     11166
     11163     11166     11168     11163     11166     11172     11168     11166     11172
     11161     11169     11171     11161     11169     11172     11171     11169     11172
     11166     11172     11169     11166     11172     11174     11169     11172     11174
     11178     11176     11179     11178     11176     11180     11178     11176     11181
     11179     11176     11180     11179     11176     11181     11180     11176     11181
     11176     11181     11183     11176     11181     11189     11183     11181     11189
     11181     11183     11185     11181     11183     11186     11185     11183     11186
     11183     11186     11188     11183     11186     11192     11188     11186     11192
     11181     11189     11191     11181     11189     11192     11191     11189     11192
     11186     11192     11189     11186     11192     11194     11189     11192     11194
     11198     11196     11199     11198     11196     11200     11198     11196     11201
     11199     11196     11200     11199     11196     11201     11200     11196     11201
     11196     11201     11203     11196     11201     11209     11203     11201     11209
     11201     11203     11205     11201     11203     11206     11205     11203     11206
     11203     11206     11208     11203     11206     11212     11208     11206     11212
     11201     11209     11211     11201     11209     11212     11211     11209     11212
     11206     11212     11209     11206     11212     11214     11209     11212     11214
     11218     11216     11219     11218     11216     11220     11218     11216     11221
     11219     11216     11220     11219     11216     11221     11220     11216     11221
     11216     11221     11223     11216     11221     11229     11223     11221     11229
     11221     11223     11225     11221     11223     11226     11225     11223     11226
     11223     11226     11228     11223     11226     11232     11228     11226     11232
     11221     11229     11231     11221     11229     11232     11231     11229     11232
     11226     11232     11229     11226     11232     11234     11229     11232     11234
     11238     11236     11239     11238     11236     11240     11238     11236     11241
     11239     11236     11240     11239     11236     11241     11240     11236     11241
     11236     11241     11243     11236     11241     11249     11243     11241     11249
     11241     11243     11245     11241     11243     11246     11245     11243     11246
     11243     11246     11248     11243     11246     11252     11248     11246     11252
     11241     11249     11251     11241     11249     11252     11251     11249     11252
     11246     11252     11249     11246     11252     11254     11249     11252     11254
     11258     11256     11259     11258     11256     11260     11258     11256     11261
     11259     11256     11260     11259     11256     11261     11260     11256     11261
     11256     11261     11263     11256     11261     11269     11263     11261     11269
     11261     11263     11265     11261     11263     11266     11265     11263     11266
     11263     11266     11268     11263     11266     11272     11268     11266     11272
     11261     11269     11271     11261     11269     11272     11271     11269     11272
     11266     11272     11269     11266     11272     11274     11269     11272     11274
     11278     11276     11279     11278     11276     11280     11278     11276     11281
     11279     11276     11280     11279     11276     11281     11280     11276     11281
     11276     11281     11283     11276     11281     11289     11283     11281     11289
     11281     11283     11285     11281     11283     11286     11285     11283     11286
     11283     11286     11288     11283     11286     11292     11288     11286     11292
     11281     11289     11291     11281     11289     11292     11291     11289     11292
     11286     11292     11289     11286     11292     11294     11289     11292     11294
     11298     11296     11299     11298     11296     11300     11298     11296     11301
     11299     11296     11300     11299     11296     11301     11300     11296     11301
     11296     11301     11303     11296     11301     11309     11303     11301     11309
     11301     11303     11305     11301     11303     11306     11305     11303     11306
     11303     11306     11308     11303     11306     11312     11308     11306     11312
     11301     11309     11311     11301     11309     11312     11311     11309     11312
     11306     11312     11309     11306     11312     11314     11309     11312     11314
     11318     11316     11319     11318     11316     11320     11318     11316     11321
     11319     11316     11320     11319     11316     11321     11320     11316     11321
     11316     11321     11323     11316     11321     11329     11323     11321     11329
     11321     11323     11325     11321     11323     11326     11325     11323     11326
     11323     11326     11328     11323     11326     11332     11328     11326     11332
     11321     11329     11331     11321     11329     11332     11331     11329     11332
     11326     11332     11329     11326     11332     11334     11329     11332     11334
     11338     11336     11339     11338     11336     11340     11338     11336     11341
     11339     11336     11340     11339     11336     11341     11340     11336     11341
     11336     11341     11343     11336     11341     11349     11343     11341     11349
     11341     11343     11345     11341     11343     11346     11345     11343     11346
     11343     11346     11348     11343     11346     11352     11348     11346     11352
     11341     11349     11351     11341     11349     11352     11351     11349     11352
     11346     11352     11349     11346     11352     11354     11349     11352     11354
     11358     11356     11359     11358     11356     11360     11358     11356     11361
     11359     11356     11360     11359     11356     11361     11360     11356     11361
     11356     11361     11363     11356     11361     11369     11363     11361     11369
     11361     11363     11365     11361     11363     11366     11365     11363     11366
     11363     11366     11368     11363     11366     11372     11368     11366     11372
     11361     11369     11371     11361     11369     11372     11371     11369     11372
     11366     11372     11369     11366     11372     11374     11369     11372     11374
     11378     11376     11379     11378     11376     11380     11378     11376     11381
     11379     11376     11380     11379     11376     11381     11380     11376     11381
     11376     11381     11383     11376     11381     11389     11383     11381     11389
     11381     11383     11385     11381     11383     11386     11385     11383     11386
     11383     11386     11388     11383     11386     11392     11388     11386     11392
     11381     11389     11391     11381     11389     11392     11391     11389     11392
     11386     11392     11389     11386     11392     11394     11389     11392     11394
     11398     11396     11399     11398     11396     11400     11398     11396     11401
     11399     11396     11400     11399     11396     11401     11400     11396     11401
     11396     11401     11403     11396     11401     11409     11403     11401     11409
     11401     11403     11405     11401     11403     11406     11405     11403     11406
     11403     11406     11408     11403     11406     11412     11408     11406     11412
     11401     11409     11411     11401     11409     11412     11411     11409     11412
     11406     11412     11409     11406     11412     11414     11409     11412     11414
     11418     11416     11419     11418     11416     11420     11418     11416     11421
     11419     11416     11420     11419     11416     11421     11420     11416     11421
     11416     11421     11423     11416     11421     11429     11423     11421     11429
     11421     11423     11425     11421     11423     11426     11425     11423     11426
     11423     11426     11428     11423     11426     11432     11428     11426     11432
     11421     11429     11431     11421     11429     11432     11431     11429     11432
     11426     11432     11429     11426     11432     11434     11429     11432     11434
     11438     11436     11439     11438     11436     11440     11438     11436     11441
     11439     11436     11440     11439     11436     11441     11440     11436     11441
     11436     11441     11443     11436     11441     11449     11443     11441     11449
     11441     11443     11445     11441     11443     11446     11445     11443     11446
     11443     11446     11448     11443     11446     11452     11448     11446     11452
     11441     11449     11451     11441     11449     11452     11451     11449     11452
     11446     11452     11449     11446     11452     11454     11449     11452     11454
     11458     11456     11459     11458     11456     11460     11458     11456     11461
     11459     11456     11460     11459     11456     11461     11460     11456     11461
     11456     11461     11463     11456     11461     11469     11463     11461     11469
     11461     11463     11465     11461     11463     11466     11465     11463     11466
     11463     11466     11468     11463     11466     11472     11468     11466     11472
     11461     11469     11471     11461     11469     11472     11471     11469     11472
     11466     11472     11469     11466     11472     11474     11469     11472     11474
     11478     11476     11479     11478     11476     11480     11478     11476     11481
     11479     11476     11480     11479     11476     11481     11480     11476     11481
     11476     11481     11483     11476     11481     11489     11483     11481     11489
     11481     11483     11485     11481     11483     11486     11485     11483     11486
     11483     11486     11488     11483     11486     11492     11488     11486     11492
     11481     11489     11491     11481     11489     11492     11491     11489     11492
     11486     11492     11489     11486     11492     11494     11489     11492     11494
     11498     11496     11499     11498     11496     11500     11498     11496     11501
     11499     11496     11500     11499     11496     11501     11500     11496     11501
     11496     11501     11503     11496     11501     11509     11503     11501     11509
     11501     11503     11505     11501     11503     11506     11505     11503     11506
     11503     11506     11508     11503     11506     11512     11508     11506     11512
     11501     11509     11511     11501     11509     11512     11511     11509     11512
     11506     11512     11509     11506     11512     11514     11509     11512     11514
     11518     11516     11519     11518     11516     11520     11518     11516     11521
     11519     11516     11520     11519     11516     11521     11520     11516     11521
     11516     11521     11523     11516     11521     11529     11523     11521     11529
     11521     11523     11525     11521     11523     11526     11525     11523     11526
     11523     11526     11528     11523     11526     11532     11528     11526     11532
     11521     11529     11531     11521     11529     11532     11531     11529     11532
     11526     11532     11529     11526     11532     11534     11529     11532     11534
     11538     11536     11539     11538     11536     11540     11538     11536     11541
     11539     11536     11540     11539     11536     11541     11540     11536     11541
     11536     11541     11543     11536     11541     11549     11543     11541     11549
     11541     11543     11545     11541     11543     11546     11545     11543     11546
     11543     11546     11548     11543     11546     11552     11548     11546     11552
     11541     11549     11551     11541     11549     11552     11551     11549     11552
     11546     11552     11549     11546     11552     11554     11549     11552     11554
     11558     11556     11559     11558     11556     11560     11558     11556     11561
     11559     11556     11560     11559     11556     11561     11560     11556     11561
     11556     11561     11563     11556     11561     11569     11563     11561     11569
     11561     11563     11565     11561     11563     11566     11565     11563     11566
     11563     11566     11568     11563     11566     11572     11568     11566     11572
     11561     11569     11571     11561     11569     11572     11571     11569     11572
     11566     11572     11569     11566     11572     11574     11569     11572     11574
     11578     11576     11579     11578     11576     11580     11578     11576     11581
     11579     11576     11580     11579     11576     11581     11580     11576     11581
     11576     11581     11583     11576     11581     11589     11583     11581     11589
     11581     11583     11585     11581     11583     11586     11585     11583     11586
     11583     11586     11588     11583     11586     11592     11588     11586     11592
     11581     11589     11591     11581     11589     11592     11591     11589     11592
     11586     11592     11589     11586     11592     11594     11589     11592     11594
     11598     11596     11599     11598     11596     11600     11598     11596     11601
     11599     11596     11600     11599     11596     11601     11600     11596     11601
     11596     11601     11603     11596     11601     11609     11603     11601     11609
     11601     11603     11605     11601     11603     11606     11605     11603     11606
     11603     11606     11608     11603     11606     11612     11608     11606     11612
     11601     11609     11611     11601     11609     11612     11611     11609     11612
     11606     11612     11609     11606     11612     11614     11609     11612     11614
     11618     11616     11619     11618     11616     11620     11618     11616     11621
     11619     11616     11620     11619     11616     11621     11620     11616     11621
     11616     11621     11623     11616     11621     11629     11623     11621     11629
     11621     11623     11625     11621     11623     11626     11625     11623     11626
     11623     11626     11628     11623     11626     11632     11628     11626     11632
     11621     11629     11631     11621     11629     11632     11631     11629     11632
     11626     11632     11629     11626     11632     11634     11629     11632     11634
     11638     11636     11639     11638     11636     11640     11638     11636     11641
     11639     11636     11640     11639     11636     11641     11640     11636     11641
     11636     11641     11643     11636     11641     11649     11643     11641     11649
     11641     11643     11645     11641     11643     11646     11645     11643     11646
     11643     11646     11648     11643     11646     11652     11648     11646     11652
     11641     11649     11651     11641     11649     11652     11651     11649     11652
     11646     11652     11649     11646     11652     11654     11649     11652     11654
     11658     11656     11659     11658     11656     11660     11658     11656     11661
     11659     11656     11660     11659     11656     11661     11660     11656     11661
     11656     11661     11663     11656     11661     11669     11663     11661     11669
     11661     11663     11665     11661     11663     11666     11665     11663     11666
     11663     11666     11668     11663     11666     11672     11668     11666     11672
     11661     11669     11671     11661     11669     11672     11671     11669     11672
     11666     11672     11669     11666     11672     11674     11669     11672     11674
     11678     11676     11679     11678     11676     11680     11678     11676     11681
     11679     11676     11680     11679     11676     11681     11680     11676     11681
     11676     11681     11683     11676     11681     11689     11683     11681     11689
     11681     11683     11685     11681     11683     11686     11685     11683     11686
     11683     11686     11688     11683     11686     11692     11688     11686     11692
     11681     11689     11691     11681     11689     11692     11691     11689     11692
     11686     11692     11689     11686     11692     11694     11689     11692     11694
     11698     11696     11699     11698     11696     11700     11698     11696     11701
     11699     11696     11700     11699     11696     11701     11700     11696     11701
     11696     11701     11703     11696     11701     11709     11703     11701     11709
     11701     11703     11705     11701     11703     11706     11705     11703     11706
     11703     11706     11708     11703     11706     11712     11708     11706     11712
     11701     11709     11711     11701     11709     11712     11711     11709     11712
     11706     11712     11709     11706     11712     11714     11709     11712     11714
     11718     11716     11719     11718     11716     11720     11718     11716     11721
     11719     11716     11720     11719     11716     11721     11720     11716     11721
     11716     11721     11723     11716     11721     11729     11723     11721     11729
     11721     11723     11725     11721     11723     11726     11725     11723     11726
     11723     11726     11728     11723     11726     11732     11728     11726     11732
     11721     11729     11731     11721     11729     11732     11731     11729     11732
     11726     11732     11729     11726     11732     11734     11729     11732     11734
     11738     11736     11739     11738     11736     11740     11738     11736     11741
     11739     11736     11740     11739     11736     11741     11740     11736     11741
     11736     11741     11743     11736     11741     11749     11743     11741     11749
     11741     11743     11745     11741     11743     11746     11745     11743     11746
     11743     11746     11748     11743     11746     11752     11748     11746     11752
     11741     11749     11751     11741     11749     11752     11751     11749     11752
     11746     11752     11749     11746     11752     11754     11749     11752     11754
     11758     11756     11759     11758     11756     11760     11758     11756     11761
     11759     11756     11760     11759     11756     11761     11760     11756     11761
     11756     11761     11763     11756     11761     11769     11763     11761     11769
     11761     11763     11765     11761     11763     11766     11765     11763     11766
     11763     11766     11768     11763     11766     11772     11768     11766     11772
     11761     11769     11771     11761     11769     11772     11771     11769     11772
     11766     11772     11769     11766     11772     11774     11769     11772     11774
     11778     11776     11779     11778     11776     11780     11778     11776     11781
     11779     11776     11780     11779     11776     11781     11780     11776     11781
     11776     11781     11783     11776     11781     11789     11783     11781     11789
     11781     11783     11785     11781     11783     11786     11785     11783     11786
     11783     11786     11788     11783     11786     11792     11788     11786     11792
     11781     11789     11791     11781     11789     11792     11791     11789     11792
     11786     11792     11789     11786     11792     11794     11789     11792     11794
     11798     11796     11799     11798     11796     11800     11798     11796     11801
     11799     11796     11800     11799     11796     11801     11800     11796     11801
     11796     11801     11803     11796     11801     11809     11803     11801     11809
     11801     11803     11805     11801     11803     11806     11805     11803     11806
     11803     11806     11808     11803     11806     11812     11808     11806     11812
     11801     11809     11811     11801     11809     11812     11811     11809     11812
     11806     11812     11809     11806     11812     11814     11809     11812     11814
     11818     11816     11819     11818     11816     11820     11818     11816     11821
     11819     11816     11820     11819     11816     11821     11820     11816     11821
     11816     11821     11823     11816     11821     11829     11823     11821     11829
     11821     11823     11825     11821     11823     11826     11825     11823     11826
     11823     11826     11828     11823     11826     11832     11828     11826     11832
     11821     11829     11831     11821     11829     11832     11831     11829     11832
     11826     11832     11829     11826     11832     11834     11829     11832     11834
     11838     11836     11839     11838     11836     11840     11838     11836     11841
     11839     11836     11840     11839     11836     11841     11840     11836     11841
     11836     11841     11843     11836     11841     11849     11843     11841     11849
     11841     11843     11845     11841     11843     11846     11845     11843     11846
     11843     11846     11848     11843     11846     11852     11848     11846     11852
     11841     11849     11851     11841     11849     11852     11851     11849     11852
     11846     11852     11849     11846     11852     11854     11849     11852     11854
     11858     11856     11859     11858     11856     11860     11858     11856     11861
     11859     11856     11860     11859     11856     11861     11860     11856     11861
     11856     11861     11863     11856     11861     11869     11863     11861     11869
     11861     11863     11865     11861     11863     11866     11865     11863     11866
     11863     11866     11868     11863     11866     11872     11868     11866     11872
     11861     11869     11871     11861     11869     11872     11871     11869     11872
     11866     11872     11869     11866     11872     11874     11869     11872     11874
     11878     11876     11879     11878     11876     11880     11878     11876     11881
     11879     11876     11880     11879     11876     11881     11880     11876     11881
     11876     11881     11883     11876     11881     11889     11883     11881     11889
     11881     11883     11885     11881     11883     11886     11885     11883     11886
     11883     11886     11888     11883     11886     11892     11888     11886     11892
     11881     11889     11891     11881     11889     11892     11891     11889     11892
     11886     11892     11889     11886     11892     11894     11889     11892     11894
     11898     11896     11899     11898     11896     11900     11898     11896     11901
     11899     11896     11900     11899     11896     11901     11900     11896     11901
     11896     11901     11903     11896     11901     11909     11903     11901     11909
     11901     11903     11905     11901     11903     11906     11905     11903     11906
     11903     11906     11908     11903     11906     11912     11908     11906     11912
     11901     11909     11911     11901     11909     11912     11911     11909     11912
     11906     11912     11909     11906     11912     11914     11909     11912     11914
     11918     11916     11919     11918     11916     11920     11918     11916     11921
     11919     11916     11920     11919     11916     11921     11920     11916     11921
     11916     11921     11923     11916     11921     11929     11923     11921     11929
     11921     11923     11925     11921     11923     11926     11925     11923     11926
     11923     11926     11928     11923     11926     11932     11928     11926     11932
     11921     11929     11931     11921     11929     11932     11931     11929     11932
     11926     11932     11929     11926     11932     11934     11929     11932     11934
     11938     11936     11939     11938     11936     11940     11938     11936     11941
     11939     11936     11940     11939     11936     11941     11940     11936     11941
     11936     11941     11943     11936     11941     11949     11943     11941     11949
     11941     11943     11945     11941     11943     11946     11945     11943     11946
     11943     11946     11948     11943     11946     11952     11948     11946     11952
     11941     11949     11951     11941     11949     11952     11951     11949     11952
     11946     11952     11949     11946     11952     11954     11949     11952     11954
     11958     11956     11959     11958     11956     11960     11958     11956     11961
     11959     11956     11960     11959     11956     11961     11960     11956     11961
     11956     11961     11963     11956     11961     11969     11963     11961     11969
     11961     11963     11965     11961     11963     11966     11965     11963     11966
     11963     11966     11968     11963     11966     11972     11968     11966     11972
     11961     11969     11971     11961     11969     11972     11971     11969     11972
     11966     11972     11969     11966     11972     11974     11969     11972     11974
     11978     11976     11979     11978     11976     11980     11978     11976     11981
     11979     11976     11980     11979     11976     11981     11980     11976     11981
     11976     11981     11983     11976     11981     11989     11983     11981     11989
     11981     11983     11985     11981     11983     11986     11985     11983     11986
     11983     11986     11988     11983     11986     11992     11988     11986     11992
     11981     11989     11991     11981     11989     11992     11991     11989     11992
     11986     11992     11989     11986     11992     11994     11989     11992     11994
     11998     11996     11999     11998     11996     12000     11998     11996     12001
     11999     11996     12000     11999     11996     12001     12000     11996     12001
     11996     12001     12003     11996     12001     12009     12003     12001     12009
     12001     12003     12005     12001     12003     12006     12005     12003     12006
     12003     12006     12008     12003     12006     12012     12008     12006     12012
     12001     12009     12011     12001     12009     12012     12011     12009     12012
     12006     12012     12009     12006     12012     12014     12009     12012     12014
     12018     12016     12019     12018     12016     12020     12018     12016     12021
     12019     12016     12020     12019     12016     12021     12020     12016     12021
     12016     12021     12023     12016     12021     12029     12023     12021     12029
     12021     12023     12025     12021     12023     12026     12025     12023     12026
     12023     12026     12028     12023     12026     12032     12028     12026     12032
     12021     12029     12031     12021     12029     12032     12031     12029     12032
     12026     12032     12029     12026     12032     12034     12029     12032     12034
     12038     12036     12039     12038     12036     12040     12038     12036     12041
     12039     12036     12040     12039     12036     12041     12040     12036     12041
     12036     12041     12043     12036     12041     12049     12043     12041     12049
     12041     12043     12045     12041     12043     12046     12045     12043     12046
     12043     12046     12048     12043     12046     12052     12048     12046     12052
     12041     12049     12051     12041     12049     12052     12051     12049     12052
     12046     12052     12049     12046     12052     12054     12049     12052     12054
     12058     12056     12059     12058     12056     12060     12058     12056     12061
     12059     12056     12060     12059     12056     12061     12060     12056     12061
     12056     12061     12063     12056     12061     12069     12063     12061     12069
     12061     12063     12065     12061     12063     12066     12065     12063     12066
     12063     12066     12068     12063     12066     12072     12068     12066     12072
     12061     12069     12071     12061     12069     12072     12071     12069     12072
     12066     12072     12069     12066     12072     12074     12069     12072     12074
     12078     12076     12079     12078     12076     12080     12078     12076     12081
     12079     12076     12080     12079     12076     12081     12080     12076     12081
     12076     12081     12083     12076     12081     12089     12083     12081     12089
     12081     12083     12085     12081     12083     12086     12085     12083     12086
     12083     12086     12088     12083     12086     12092     12088     12086     12092
     12081     12089     12091     12081     12089     12092     12091     12089     12092
     12086     12092     12089     12086     12092     12094     12089     12092     12094
     12098     12096     12099     12098     12096     12100     12098     12096     12101
     12099     12096     12100     12099     12096     12101     12100     12096     12101
     12096     12101     12103     12096     12101     12109     12103     12101     12109
     12101     12103     12105     12101     12103     12106     12105     12103     12106
     12103     12106     12108     12103     12106     12112     12108     12106     12112
     12101     12109     12111     12101     12109     12112     12111     12109     12112
     12106     12112     12109     12106     12112     12114     12109     12112     12114
     12118     12116     12119     12118     12116     12120     12118     12116     12121
     12119     12116     12120     12119     12116     12121     12120     12116     12121
     12116     12121     12123     12116     12121     12129     12123     12121     12129
     12121     12123     12125     12121     12123     12126     12125     12123     12126
     12123     12126     12128     12123     12126     12132     12128     12126     12132
     12121     12129     12131     12121     12129     12132     12131     12129     12132
     12126     12132     12129     12126     12132     12134     12129     12132     12134
     12138     12136     12139     12138     12136     12140     12138     12136     12141
     12139     12136     12140     12139     12136     12141     12140     12136     12141
     12136     12141     12143     12136     12141     12149     12143     12141     12149
     12141     12143     12145     12141     12143     12146     12145     12143     12146
     12143     12146     12148     12143     12146     12152     12148     12146     12152
     12141     12149     12151     12141     12149     12152     12151     12149     12152
     12146     12152     12149     12146     12152     12154     12149     12152     12154
     12158     12156     12159     12158     12156     12160     12158     12156     12161
     12159     12156     12160     12159     12156     12161     12160     12156     12161
     12156     12161     12163     12156     12161     12169     12163     12161     12169
     12161     12163     12165     12161     12163     12166     12165     12163     12166
     12163     12166     12168     12163     12166     12172     12168     12166     12172
     12161     12169     12171     12161     12169     12172     12171     12169     12172
     12166     12172     12169     12166     12172     12174     12169     12172     12174
     12178     12176     12179     12178     12176     12180     12178     12176     12181
     12179     12176     12180     12179     12176     12181     12180     12176     12181
     12176     12181     12183     12176     12181     12189     12183     12181     12189
     12181     12183     12185     12181     12183     12186     12185     12183     12186
     12183     12186     12188     12183     12186     12192     12188     12186     12192
     12181     12189     12191     12181     12189     12192     12191     12189     12192
     12186     12192     12189     12186     12192     12194     12189     12192     12194
     12198     12196     12199     12198     12196     12200     12198     12196     12201
     12199     12196     12200     12199     12196     12201     12200     12196     12201
     12196     12201     12203     12196     12201     12209     12203     12201     12209
     12201     12203     12205     12201     12203     12206     12205     12203     12206
     12203     12206     12208     12203     12206     12212     12208     12206     12212
     12201     12209     12211     12201     12209     12212     12211     12209     12212
     12206     12212     12209     12206     12212     12214     12209     12212     12214
     12218     12216     12219     12218     12216     12220     12218     12216     12221
     12219     12216     12220     12219     12216     12221     12220     12216     12221
     12216     12221     12223     12216     12221     12229     12223     12221     12229
     12221     12223     12225     12221     12223     12226     12225     12223     12226
     12223     12226     12228     12223     12226     12232     12228     12226     12232
     12221     12229     12231     12221     12229     12232     12231     12229     12232
     12226     12232     12229     12226     12232     12234     12229     12232     12234
     12238     12236     12239     12238     12236     12240     12238     12236     12241
     12239     12236     12240     12239     12236     12241     12240     12236     12241
     12236     12241     12243     12236     12241     12249     12243     12241     12249
     12241     12243     12245     12241     12243     12246     12245     12243     12246
     12243     12246     12248     12243     12246     12252     12248     12246     12252
     12241     12249     12251     12241     12249     12252     12251     12249     12252
     12246     12252     12249     12246     12252     12254     12249     12252     12254
     12258     12256     12259     12258     12256     12260     12258     12256     12261
     12259     12256     12260     12259     12256     12261     12260     12256     12261
     12256     12261     12263     12256     12261     12269     12263     12261     12269
     12261     12263     12265     12261     12263     12266     12265     12263     12266
     12263     12266     12268     12263     12266     12272     12268     12266     12272
     12261     12269     12271     12261     12269     12272     12271     12269     12272
     12266     12272     12269     12266     12272     12274     12269     12272     12274
     12278     12276     12279     12278     12276     12280     12278     12276     12281
     12279     12276     12280     12279     12276     12281     12280     12276     12281
     12276     12281     12283     12276     12281     12289     12283     12281     12289
     12281     12283     12285     12281     12283     12286     12285     12283     12286
     12283     12286     12288     12283     12286     12292     12288     12286     12292
     12281     12289     12291     12281     12289     12292     12291     12289     12292
     12286     12292     12289     12286     12292     12294     12289     12292     12294
     12298     12296     12299     12298     12296     12300     12298     12296     12301
     12299     12296     12300     12299     12296     12301     12300     12296     12301
     12296     12301     12303     12296     12301     12309     12303     12301     12309
     12301     12303     12305     12301     12303     12306     12305     12303     12306
     12303     12306     12308     12303     12306     12312     12308     12306     12312
     12301     12309     12311     12301     12309     12312     12311     12309     12312
     12306     12312     12309     12306     12312     12314     12309     12312     12314
     12318     12316     12319     12318     12316     12320     12318     12316     12321
     12319     12316     12320     12319     12316     12321     12320     12316     12321
     12316     12321     12323     12316     12321     12329     12323     12321     12329
     12321     12323     12325     12321     12323     12326     12325     12323     12326
     12323     12326     12328     12323     12326     12332     12328     12326     12332
     12321     12329     12331     12321     12329     12332     12331     12329     12332
     12326     12332     12329     12326     12332     12334     12329     12332     12334
     12338     12336     12339     12338     12336     12340     12338     12336     12341
     12339     12336     12340     12339     12336     12341     12340     12336     12341
     12336     12341     12343     12336     12341     12349     12343     12341     12349
     12341     12343     12345     12341     12343     12346     12345     12343     12346
     12343     12346     12348     12343     12346     12352     12348     12346     12352
     12341     12349     12351     12341     12349     12352     12351     12349     12352
     12346     12352     12349     12346     12352     12354     12349     12352     12354
     12358     12356     12359     12358     12356     12360     12358     12356     12361
     12359     12356     12360     12359     12356     12361     12360     12356     12361
     12356     12361     12363     12356     12361     12369     12363     12361     12369
     12361     12363     12365     12361     12363     12366     12365     12363     12366
     12363     12366     12368     12363     12366     12372     12368     12366     12372
     12361     12369     12371     12361     12369     12372     12371     12369     12372
     12366     12372     12369     12366     12372     12374     12369     12372     12374
     12378     12376     12379     12378     12376     12380     12378     12376     12381
     12379     12376     12380     12379     12376     12381     12380     12376     12381
     12376     12381     12383     12376     12381     12389     12383     12381     12389
     12381     12383     12385     12381     12383     12386     12385     12383     12386
     12383     12386     12388     12383     12386     12392     12388     12386     12392
     12381     12389     12391     12381     12389     12392     12391     12389     12392
     12386     12392     12389     12386     12392     12394     12389     12392     12394
     12398     12396     12399     12398     12396     12400     12398     12396     12401
     12399     12396     12400     12399     12396     12401     12400     12396     12401
     12396     12401     12403     12396     12401     12409     12403     12401     12409
     12401     12403     12405     12401     12403     12406     12405     12403     12406
     12403     12406     12408     12403     12406     12412     12408     12406     12412
     12401     12409     12411     12401     12409     12412     12411     12409     12412
     12406     12412     12409     12406     12412     12414     12409     12412     12414
     12418     12416     12419     12418     12416     12420     12418     12416     12421
     12419     12416     12420     12419     12416     12421     12420     12416     12421
     12416     12421     12423     12416     12421     12429     12423     12421     12429
     12421     12423     12425     12421     12423     12426     12425     12423     12426
     12423     12426     12428     12423     12426     12432     12428     12426     12432
     12421     12429     12431     12421     12429     12432     12431     12429     12432
     12426     12432     12429     12426     12432     12434     12429     12432     12434
     12438     12436     12439     12438     12436     12440     12438     12436     12441
     12439     12436     12440     12439     12436     12441     12440     12436     12441
     12436     12441     12443     12436     12441     12449     12443     12441     12449
     12441     12443     12445     12441     12443     12446     12445     12443     12446
     12443     12446     12448     12443     12446     12452     12448     12446     12452
     12441     12449     12451     12441     12449     12452     12451     12449     12452
     12446     12452     12449     12446     12452     12454     12449     12452     12454
     12458     12456     12459     12458     12456     12460     12458     12456     12461
     12459     12456     12460     12459     12456     12461     12460     12456     12461
     12456     12461     12463     12456     12461     12469     12463     12461     12469
     12461     12463     12465     12461     12463     12466     12465     12463     12466
     12463     12466     12468     12463     12466     12472     12468     12466     12472
     12461     12469     12471     12461     12469     12472     12471     12469     12472
     12466     12472     12469     12466     12472     12474     12469     12472     12474
     12478     12476     12479     12478     12476     12480     12478     12476     12481
     12479     12476     12480     12479     12476     12481     12480     12476     12481
     12476     12481     12483     12476     12481     12489     12483     12481     12489
     12481     12483     12485     12481     12483     12486     12485     12483     12486
     12483     12486     12488     12483     12486     12492     12488     12486     12492
     12481     12489     12491     12481     12489     12492     12491     12489     12492
     12486     12492     12489     12486     12492     12494     12489     12492     12494
     12498     12496     12499     12498     12496     12500     12498     12496     12501
     12499     12496     12500     12499     12496     12501     12500     12496     12501
     12496     12501     12503     12496     12501     12509     12503     12501     12509
     12501     12503     12505     12501     12503     12506     12505     12503     12506
     12503     12506     12508     12503     12506     12512     12508     12506     12512
     12501     12509     12511     12501     12509     12512     12511     12509     12512
     12506     12512     12509     12506     12512     12514     12509     12512     12514
     12518     12516     12519     12518     12516     12520     12518     12516     12521
     12519     12516     12520     12519     12516     12521     12520     12516     12521
     12516     12521     12523     12516     12521     12529     12523     12521     12529
     12521     12523     12525     12521     12523     12526     12525     12523     12526
     12523     12526     12528     12523     12526     12532     12528     12526     12532
     12521     12529     12531     12521     12529     12532     12531     12529     12532
     12526     12532     12529     12526     12532     12534     12529     12532     12534
     12538     12536     12539     12538     12536     12540     12538     12536     12541
     12539     12536     12540     12539     12536     12541     12540     12536     12541
     12536     12541     12543     12536     12541     12549     12543     12541     12549
     12541     12543     12545     12541     12543     12546     12545     12543     12546
     12543     12546     12548     12543     12546     12552     12548     12546     12552
     12541     12549     12551     12541     12549     12552     12551     12549     12552
     12546     12552     12549     12546     12552     12554     12549     12552     12554
     12558     12556     12559     12558     12556     12560     12558     12556     12561
     12559     12556     12560     12559     12556     12561     12560     12556     12561
     12556     12561     12563     12556     12561     12569     12563     12561     12569
     12561     12563     12565     12561     12563     12566     12565     12563     12566
     12563     12566     12568     12563     12566     12572     12568     12566     12572
     12561     12569     12571     12561     12569     12572     12571     12569     12572
     12566     12572     12569     12566     12572     12574     12569     12572     12574
     12578     12576     12579     12578     12576     12580     12578     12576     12581
     12579     12576     12580     12579     12576     12581     12580     12576     12581
     12576     12581     12583     12576     12581     12589     12583     12581     12589
     12581     12583     12585     12581     12583     12586     12585     12583     12586
     12583     12586     12588     12583     12586     12592     12588     12586     12592
     12581     12589     12591     12581     12589     12592     12591     12589     12592
     12586     12592     12589     12586     12592     12594     12589     12592     12594
     12598     12596     12599     12598     12596     12600     12598     12596     12601
     12599     12596     12600     12599     12596     12601     12600     12596     12601
     12596     12601     12603     12596     12601     12609     12603     12601     12609
     12601     12603     12605     12601     12603     12606     12605     12603     12606
     12603     12606     12608     12603     12606     12612     12608     12606     12612
     12601     12609     12611     12601     12609     12612     12611     12609     12612
     12606     12612     12609     12606     12612     12614     12609     12612     12614
     12618     12616     12619     12618     12616     12620     12618     12616     12621
     12619     12616     12620     12619     12616     12621     12620     12616     12621
     12616     12621     12623     12616     12621     12629     12623     12621     12629
     12621     12623     12625     12621     12623     12626     12625     12623     12626
     12623     12626     12628     12623     12626     12632     12628     12626     12632
     12621     12629     12631     12621     12629     12632     12631     12629     12632
     12626     12632     12629     12626     12632     12634     12629     12632     12634
     12638     12636     12639     12638     12636     12640     12638     12636     12641
     12639     12636     12640     12639     12636     12641     12640     12636     12641
     12636     12641     12643     12636     12641     12649     12643     12641     12649
     12641     12643     12645     12641     12643     12646     12645     12643     12646
     12643     12646     12648     12643     12646     12652     12648     12646     12652
     12641     12649     12651     12641     12649     12652     12651     12649     12652
     12646     12652     12649     12646     12652     12654     12649     12652     12654
     12658     12656     12659     12658     12656     12660     12658     12656     12661
     12659     12656     12660     12659     12656     12661     12660     12656     12661
     12656     12661     12663     12656     12661     12669     12663     12661     12669
     12661     12663     12665     12661     12663     12666     12665     12663     12666
     12663     12666     12668     12663     12666     12672     12668     12666     12672
     12661     12669     12671     12661     12669     12672     12671     12669     12672
     12666     12672     12669     12666     12672     12674     12669     12672     12674
     12678     12676     12679     12678     12676     12680     12678     12676     12681
     12679     12676     12680     12679     12676     12681     12680     12676     12681
     12676     12681     12683     12676     12681     12689     12683     12681     12689
     12681     12683     12685     12681     12683     12686     12685     12683     12686
     12683     12686     12688     12683     12686     12692     12688     12686     12692
     12681     12689     12691     12681     12689     12692     12691     12689     12692
     12686     12692     12689     12686     12692     12694     12689     12692     12694
     12698     12696     12699     12698     12696     12700     12698     12696     12701
     12699     12696     12700     12699     12696     12701     12700     12696     12701
     12696     12701     12703     12696     12701     12709     12703     12701     12709
     12701     12703     12705     12701     12703     12706     12705     12703     12706
     12703     12706     12708     12703     12706     12712     12708     12706     12712
     12701     12709     12711     12701     12709     12712     12711     12709     12712
     12706     12712     12709     12706     12712     12714     12709     12712     12714
     12718     12716     12719     12718     12716     12720     12718     12716     12721
     12719     12716     12720     12719     12716     12721     12720     12716     12721
     12716     12721     12723     12716     12721     12729     12723     12721     12729
     12721     12723     12725     12721     12723     12726     12725     12723     12726
     12723     12726     12728     12723     12726     12732     12728     12726     12732
     12721     12729     12731     12721     12729     12732     12731     12729     12732
     12726     12732     12729     12726     12732     12734     12729     12732     12734
     12738     12736     12739     12738     12736     12740     12738     12736     12741
     12739     12736     12740     12739     12736     12741     12740     12736     12741
     12736     12741     12743     12736     12741     12749     12743     12741     12749
     12741     12743     12745     12741     12743     12746     12745     12743     12746
     12743     12746     12748     12743     12746     12752     12748     12746     12752
     12741     12749     12751     12741     12749     12752     12751     12749     12752
     12746     12752     12749     12746     12752     12754     12749     12752     12754
     12758     12756     12759     12758     12756     12760     12758     12756     12761
     12759     12756     12760     12759     12756     12761     12760     12756     12761
     12756     12761     12763     12756     12761     12769     12763     12761     12769
     12761     12763     12765     12761     12763     12766     12765     12763     12766
     12763     12766     12768     12763     12766     12772     12768     12766     12772
     12761     12769     12771     12761     12769     12772     12771     12769     12772
     12766     12772     12769     12766     12772     12774     12769     12772     12774
     12778     12776     12779     12778     12776     12780     12778     12776     12781
     12779     12776     12780     12779     12776     12781     12780     12776     12781
     12776     12781     12783     12776     12781     12789     12783     12781     12789
     12781     12783     12785     12781     12783     12786     12785     12783     12786
     12783     12786     12788     12783     12786     12792     12788     12786     12792
     12781     12789     12791     12781     12789     12792     12791     12789     12792
     12786     12792     12789     12786     12792     12794     12789     12792     12794
     12798     12796     12799     12798     12796     12800     12798     12796     12801
     12799     12796     12800     12799     12796     12801     12800     12796     12801
     12796     12801     12803     12796     12801     12809     12803     12801     12809
     12801     12803     12805     12801     12803     12806     12805     12803     12806
     12803     12806     12808     12803     12806     12812     12808     12806     12812
     12801     12809     12811     12801     12809     12812     12811     12809     12812
     12806     12812     12809     12806     12812     12814     12809     12812     12814
     12818     12816     12819     12818     12816     12820     12818     12816     12821
     12819     12816     12820     12819     12816     12821     12820     12816     12821
     12816     12821     12823     12816     12821     12829     12823     12821     12829
     12821     12823     12825     12821     12823     12826     12825     12823     12826
     12823     12826     12828     12823     12826     12832     12828     12826     12832
     12821     12829     12831     12821     12829     12832     12831     12829     12832
     12826     12832     12829     12826     12832     12834     12829     12832     12834
     12838     12836     12839     12838     12836     12840     12838     12836     12841
     12839     12836     12840     12839     12836     12841     12840     12836     12841
     12836     12841     12843     12836     12841     12849     12843     12841     12849
     12841     12843     12845     12841     12843     12846     12845     12843     12846
     12843     12846     12848     12843     12846     12852     12848     12846     12852
     12841     12849     12851     12841     12849     12852     12851     12849     12852
     12846     12852     12849     12846     12852     12854     12849     12852     12854
     12858     12856     12859     12858     12856     12860     12858     12856     12861
     12859     12856     12860     12859     12856     12861     12860     12856     12861
     12856     12861     12863     12856     12861     12869     12863     12861     12869
     12861     12863     12865     12861     12863     12866     12865     12863     12866
     12863     12866     12868     12863     12866     12872     12868     12866     12872
     12861     12869     12871     12861     12869     12872     12871     12869     12872
     12866     12872     12869     12866     12872     12874     12869     12872     12874
     12878     12876     12879     12878     12876     12880     12878     12876     12881
     12879     12876     12880     12879     12876     12881     12880     12876     12881
     12876     12881     12883     12876     12881     12889     12883     12881     12889
     12881     12883     12885     12881     12883     12886     12885     12883     12886
     12883     12886     12888     12883     12886     12892     12888     12886     12892
     12881     12889     12891     12881     12889     12892     12891     12889     12892
     12886     12892     12889     12886     12892     12894     12889     12892     12894
     12898     12896     12899     12898     12896     12900     12898     12896     12901
     12899     12896     12900     12899     12896     12901     12900     12896     12901
     12896     12901     12903     12896     12901     12909     12903     12901     12909
     12901     12903     12905     12901     12903     12906     12905     12903     12906
     12903     12906     12908     12903     12906     12912     12908     12906     12912
     12901     12909     12911     12901     12909     12912     12911     12909     12912
     12906     12912     12909     12906     12912     12914     12909     12912     12914
     12918     12916     12919     12918     12916     12920     12918     12916     12921
     12919     12916     12920     12919     12916     12921     12920     12916     12921
     12916     12921     12923     12916     12921     12929     12923     12921     12929
     12921     12923     12925     12921     12923     12926     12925     12923     12926
     12923     12926     12928     12923     12926     12932     12928     12926     12932
     12921     12929     12931     12921     12929     12932     12931     12929     12932
     12926     12932     12929     12926     12932     12934     12929     12932     12934
     12938     12936     12939     12938     12936     12940     12938     12936     12941
     12939     12936     12940     12939     12936     12941     12940     12936     12941
     12936     12941     12943     12936     12941     12949     12943     12941     12949
     12941     12943     12945     12941     12943     12946     12945     12943     12946
     12943     12946     12948     12943     12946     12952     12948     12946     12952
     12941     12949     12951     12941     12949     12952     12951     12949     12952
     12946     12952     12949     12946     12952     12954     12949     12952     12954
     12958     12956     12959     12958     12956     12960     12958     12956     12961
     12959     12956     12960     12959     12956     12961     12960     12956     12961
     12956     12961     12963     12956     12961     12969     12963     12961     12969
     12961     12963     12965     12961     12963     12966     12965     12963     12966
     12963     12966     12968     12963     12966     12972     12968     12966     12972
     12961     12969     12971     12961     12969     12972     12971     12969     12972
     12966     12972     12969     12966     12972     12974     12969     12972     12974
     12978     12976     12979     12978     12976     12980     12978     12976     12981
     12979     12976     12980     12979     12976     12981     12980     12976     12981
     12976     12981     12983     12976     12981     12989     12983     12981     12989
     12981     12983     12985     12981     12983     12986     12985     12983     12986
     12983     12986     12988     12983     12986     12992     12988     12986     12992
     12981     12989     12991     12981     12989     12992     12991     12989     12992
     12986     12992     12989     12986     12992     12994     12989     12992     12994
     12998     12996     12999     12998     12996     13000     12998     12996     13001
     12999     12996     13000     12999     12996     13001     13000     12996     13001
     12996     13001     13003     12996     13001     13009     13003     13001     13009
     13001     13003     13005     13001     13003     13006     13005     13003     13006
     13003     13006     13008     13003     13006     13012     13008     13006     13012
     13001     13009     13011     13001     13009     13012     13011     13009     13012
     13006     13012     13009     13006     13012     13014     13009     13012     13014
     13018     13016     13019     13018     13016     13020     13018     13016     13021
     13019     13016     13020     13019     13016     13021     13020     13016     13021
     13016     13021     13023     13016     13021     13029     13023     13021     13029
     13021     13023     13025     13021     13023     13026     13025     13023     13026
     13023     13026     13028     13023     13026     13032     13028     13026     13032
     13021     13029     13031     13021     13029     13032     13031     13029     13032
     13026     13032     13029     13026     13032     13034     13029     13032     13034
     13038     13036     13039     13038     13036     13040     13038     13036     13041
     13039     13036     13040     13039     13036     13041     13040     13036     13041
     13036     13041     13043     13036     13041     13049     13043     13041     13049
     13041     13043     13045     13041     13043     13046     13045     13043     13046
     13043     13046     13048     13043     13046     13052     13048     13046     13052
     13041     13049     13051     13041     13049     13052     13051     13049     13052
     13046     13052     13049     13046     13052     13054     13049     13052     13054
     13058     13056     13059     13058     13056     13060     13058     13056     13061
     13059     13056     13060     13059     13056     13061     13060     13056     13061
     13056     13061     13063     13056     13061     13069     13063     13061     13069
     13061     13063     13065     13061     13063     13066     13065     13063     13066
     13063     13066     13068     13063     13066     13072     13068     13066     13072
     13061     13069     13071     13061     13069     13072     13071     13069     13072
     13066     13072     13069     13066     13072     13074     13069     13072     13074
     13078     13076     13079     13078     13076     13080     13078     13076     13081
     13079     13076     13080     13079     13076     13081     13080     13076     13081
     13076     13081     13083     13076     13081     13089     13083     13081     13089
     13081     13083     13085     13081     13083     13086     13085     13083     13086
     13083     13086     13088     13083     13086     13092     13088     13086     13092
     13081     13089     13091     13081     13089     13092     13091     13089     13092
     13086     13092     13089     13086     13092     13094     13089     13092     13094
     13098     13096     13099     13098     13096     13100     13098     13096     13101
     13099     13096     13100     13099     13096     13101     13100     13096     13101
     13096     13101     13103     13096     13101     13109     13103     13101     13109
     13101     13103     13105     13101     13103     13106     13105     13103     13106
     13103     13106     13108     13103     13106     13112     13108     13106     13112
     13101     13109     13111     13101     13109     13112     13111     13109     13112
     13106     13112     13109     13106     13112     13114     13109     13112     13114
     13118     13116     13119     13118     13116     13120     13118     13116     13121
     13119     13116     13120     13119     13116     13121     13120     13116     13121
     13116     13121     13123     13116     13121     13129     13123     13121     13129
     13121     13123     13125     13121     13123     13126     13125     13123     13126
     13123     13126     13128     13123     13126     13132     13128     13126     13132
     13121     13129     13131     13121     13129     13132     13131     13129     13132
     13126     13132     13129     13126     13132     13134     13129     13132     13134
     13138     13136     13139     13138     13136     13140     13138     13136     13141
     13139     13136     13140     13139     13136     13141     13140     13136     13141
     13136     13141     13143     13136     13141     13149     13143     13141     13149
     13141     13143     13145     13141     13143     13146     13145     13143     13146
     13143     13146     13148     13143     13146     13152     13148     13146     13152
     13141     13149     13151     13141     13149     13152     13151     13149     13152
     13146     13152     13149     13146     13152     13154     13149     13152     13154
     13158     13156     13159     13158     13156     13160     13158     13156     13161
     13159     13156     13160     13159     13156     13161     13160     13156     13161
     13156     13161     13163     13156     13161     13169     13163     13161     13169
     13161     13163     13165     13161     13163     13166     13165     13163     13166
     13163     13166     13168     13163     13166     13172     13168     13166     13172
     13161     13169     13171     13161     13169     13172     13171     13169     13172
     13166     13172     13169     13166     13172     13174     13169     13172     13174
     13178     13176     13179     13178     13176     13180     13178     13176     13181
     13179     13176     13180     13179     13176     13181     13180     13176     13181
     13176     13181     13183     13176     13181     13189     13183     13181     13189
     13181     13183     13185     13181     13183     13186     13185     13183     13186
     13183     13186     13188     13183     13186     13192     13188     13186     13192
     13181     13189     13191     13181     13189     13192     13191     13189     13192
     13186     13192     13189     13186     13192     13194     13189     13192     13194
     13198     13196     13199     13198     13196     13200     13198     13196     13201
     13199     13196     13200     13199     13196     13201     13200     13196     13201
     13196     13201     13203     13196     13201     13209     13203     13201     13209
     13201     13203     13205     13201     13203     13206     13205     13203     13206
     13203     13206     13208     13203     13206     13212     13208     13206     13212
     13201     13209     13211     13201     13209     13212     13211     13209     13212
     13206     13212     13209     13206     13212     13214     13209     13212     13214
     13218     13216     13219     13218     13216     13220     13218     13216     13221
     13219     13216     13220     13219     13216     13221     13220     13216     13221
     13216     13221     13223     13216     13221     13229     13223     13221     13229
     13221     13223     13225     13221     13223     13226     13225     13223     13226
     13223     13226     13228     13223     13226     13232     13228     13226     13232
     13221     13229     13231     13221     13229     13232     13231     13229     13232
     13226     13232     13229     13226     13232     13234     13229     13232     13234
     13238     13236     13239     13238     13236     13240     13238     13236     13241
     13239     13236     13240     13239     13236     13241     13240     13236     13241
     13236     13241     13243     13236     13241     13249     13243     13241     13249
     13241     13243     13245     13241     13243     13246     13245     13243     13246
     13243     13246     13248     13243     13246     13252     13248     13246     13252
     13241     13249     13251     13241     13249     13252     13251     13249     13252
     13246     13252     13249     13246     13252     13254     13249     13252     13254
     13258     13256     13259     13258     13256     13260     13258     13256     13261
     13259     13256     13260     13259     13256     13261     13260     13256     13261
     13256     13261     13263     13256     13261     13269     13263     13261     13269
     13261     13263     13265     13261     13263     13266     13265     13263     13266
     13263     13266     13268     13263     13266     13272     13268     13266     13272
     13261     13269     13271     13261     13269     13272     13271     13269     13272
     13266     13272     13269     13266     13272     13274     13269     13272     13274
     13278     13276     13279     13278     13276     13280     13278     13276     13281
     13279     13276     13280     13279     13276     13281     13280     13276     13281
     13276     13281     13283     13276     13281     13289     13283     13281     13289
     13281     13283     13285     13281     13283     13286     13285     13283     13286
     13283     13286     13288     13283     13286     13292     13288     13286     13292
     13281     13289     13291     13281     13289     13292     13291     13289     13292
     13286     13292     13289     13286     13292     13294     13289     13292     13294
     13298     13296     13299     13298     13296     13300     13298     13296     13301
     13299     13296     13300     13299     13296     13301     13300     13296     13301
     13296     13301     13303     13296     13301     13309     13303     13301     13309
     13301     13303     13305     13301     13303     13306     13305     13303     13306
     13303     13306     13308     13303     13306     13312     13308     13306     13312
     13301     13309     13311     13301     13309     13312     13311     13309     13312
     13306     13312     13309     13306     13312     13314     13309     13312     13314
     13318     13316     13319     13318     13316     13320     13318     13316     13321
     13319     13316     13320     13319     13316     13321     13320     13316     13321
     13316     13321     13323     13316     13321     13329     13323     13321     13329
     13321     13323     13325     13321     13323     13326     13325     13323     13326
     13323     13326     13328     13323     13326     13332     13328     13326     13332
     13321     13329     13331     13321     13329     13332     13331     13329     13332
     13326     13332     13329     13326     13332     13334     13329     13332     13334
     13338     13336     13339     13338     13336     13340     13338     13336     13341
     13339     13336     13340     13339     13336     13341     13340     13336     13341
     13336     13341     13343     13336     13341     13349     13343     13341     13349
     13341     13343     13345     13341     13343     13346     13345     13343     13346
     13343     13346     13348     13343     13346     13352     13348     13346     13352
     13341     13349     13351     13341     13349     13352     13351     13349     13352
     13346     13352     13349     13346     13352     13354     13349     13352     13354
     13358     13356     13359     13358     13356     13360     13358     13356     13361
     13359     13356     13360     13359     13356     13361     13360     13356     13361
     13356     13361     13363     13356     13361     13369     13363     13361     13369
     13361     13363     13365     13361     13363     13366     13365     13363     13366
     13363     13366     13368     13363     13366     13372     13368     13366     13372
     13361     13369     13371     13361     13369     13372     13371     13369     13372
     13366     13372     13369     13366     13372     13374     13369     13372     13374
     13378     13376     13388     13378     13376     13389     13378     13376     13390
     13388     13376     13389     13388     13376     13390     13389     13376     13390
     13376     13378     13380     13376     13378     13391     13376     13378     13392
     13380     13378     13391     13380     13378     13392     13391     13378     13392
     13378     13380     13382     13378     13380     13393     13378     13380     13394
     13382     13380     13393     13382     13380     13394     13393     13380     13394
     13380     13382     13384     13380     13382     13386     13384     13382     13386
     13382     13384     13396     13382     13386     13395     13403     13401     13413
     13403     13401     13414     13403     13401     13415     13413     13401     13414
     13413     13401     13415     13414     13401     13415     13401     13403     13405
     13401     13403     13416     13401     13403     13417     13405     13403     13416
     13405     13403     13417     13416     13403     13417     13403     13405     13407
     13403     13405     13418     13403     13405     13419     13407     13405     13418
     13407     13405     13419     13418     13405     13419     13405     13407     13409
     13405     13407     13411     13409     13407     13411     13407     13409     13421
     13407     13411     13420     13428     13426     13438     13428     13426     13439
     13428     13426     13440     13438     13426     13439     13438     13426     13440
     13439     13426     13440     13426     13428     13430     13426     13428     13441
     13426     13428     13442     13430     13428     13441     13430     13428     13442
     13441     13428     13442     13428     13430     13432     13428     13430     13443
     13428     13430     13444     13432     13430     13443     13432     13430     13444
     13443     13430     13444     13430     13432     13434     13430     13432     13436
     13434     13432     13436     13432     13434     13446     13432     13436     13445
     13453     13451     13463     13453     13451     13464     13453     13451     13465
     13463     13451     13464     13463     13451     13465     13464     13451     13465
     13451     13453     13455     13451     13453     13466     13451     13453     13467
     13455     13453     13466     13455     13453     13467     13466     13453     13467
     13453     13455     13457     13453     13455     13468     13453     13455     13469
     13457     13455     13468     13457     13455     13469     13468     13455     13469
     13455     13457     13459     13455     13457     13461     13459     13457     13461
     13457     13459     13471     13457     13461     13470     13478     13476     13488
     13478     13476     13489     13478     13476     13490     13488     13476     13489
     13488     13476     13490     13489     13476     13490     13476     13478     13480
     13476     13478     13491     13476     13478     13492     13480     13478     13491
     13480     13478     13492     13491     13478     13492     13478     13480     13482
     13478     13480     13493     13478     13480     13494     13482     13480     13493
     13482     13480     13494     13493     13480     13494     13480     13482     13484
     13480     13482     13486     13484     13482     13486     13482     13484     13496
     13482     13486     13495     13503     13501     13513     13503     13501     13514
     13503     13501     13515     13513     13501     13514     13513     13501     13515
     13514     13501     13515     13501     13503     13505     13501     13503     13516
     13501     13503     13517     13505     13503     13516     13505     13503     13517
     13516     13503     13517     13503     13505     13507     13503     13505     13518
     13503     13505     13519     13507     13505     13518     13507     13505     13519
     13518     13505     13519     13505     13507     13509     13505     13507     13511
     13509     13507     13511     13507     13509     13521     13507     13511     13520
     13528     13526     13538     13528     13526     13539     13528     13526     13540
     13538     13526     13539     13538     13526     13540     13539     13526     13540
     13526     13528     13530     13526     13528     13541     13526     13528     13542
     13530     13528     13541     13530     13528     13542     13541     13528     13542
     13528     13530     13532     13528     13530     13543     13528     13530     13544
     13532     13530     13543     13532     13530     13544     13543     13530     13544
     13530     13532     13534     13530     13532     13536     13534     13532     13536
     13532     13534     13546     13532     13536     13545     13553     13551     13563
     13553     13551     13564     13553     13551     13565     13563     13551     13564
     13563     13551     13565     13564     13551     13565     13551     13553     13555
     13551     13553     13566     13551     13553     13567     13555     13553     13566
     13555     13553     13567     13566     13553     13567     13553     13555     13557
     13553     13555     13568     13553     13555     13569     13557     13555     13568
     13557     13555     13569     13568     13555     13569     13555     13557     13559
     13555     13557     13561     13559     13557     13561     13557     13559     13571
     13557     13561     13570     13578     13576     13588     13578     13576     13589
     13578     13576     13590     13588     13576     13589     13588     13576     13590
     13589     13576     13590     13576     13578     13580     13576     13578     13591
     13576     13578     13592     13580     13578     13591     13580     13578     13592
     13591     13578     13592     13578     13580     13582     13578     13580     13593
     13578     13580     13594     13582     13580     13593     13582     13580     13594
     13593     13580     13594     13580     13582     13584     13580     13582     13586
     13584     13582     13586     13582     13584     13596     13582     13586     13595
     13603     13601     13613     13603     13601     13614     13603     13601     13615
     13613     13601     13614     13613     13601     13615     13614     13601     13615
     13601     13603     13605     13601     13603     13616     13601     13603     13617
     13605     13603     13616     13605     13603     13617     13616     13603     13617
     13603     13605     13607     13603     13605     13618     13603     13605     13619
     13607     13605     13618     13607     13605     13619     13618     13605     13619
     13605     13607     13609     13605     13607     13611     13609     13607     13611
     13607     13609     13621     13607     13611     13620     13628     13626     13638
     13628     13626     13639     13628     13626     13640     13638     13626     13639
     13638     13626     13640     13639     13626     13640     13626     13628     13630
     13626     13628     13641     13626     13628     13642     13630     13628     13641
     13630     13628     13642     13641     13628     13642     13628     13630     13632
     13628     13630     13643     13628     13630     13644     13632     13630     13643
     13632     13630     13644     13643     13630     13644     13630     13632     13634
     13630     13632     13636     13634     13632     13636     13632     13634     13646
     13632     13636     13645     13653     13651     13663     13653     13651     13664
     13653     13651     13665     13663     13651     13664     13663     13651     13665
     13664     13651     13665     13651     13653     13655     13651     13653     13666
     13651     13653     13667     13655     13653     13666     13655     13653     13667
     13666     13653     13667     13653     13655     13657     13653     13655     13668
     13653     13655     13669     13657     13655     13668     13657     13655     13669
     13668     13655     13669     13655     13657     13659     13655     13657     13661
     13659     13657     13661     13657     13659     13671     13657     13661     13670
     13678     13676     13688     13678     13676     13689     13678     13676     13690
     13688     13676     13689     13688     13676     13690     13689     13676     13690
     13676     13678     13680     13676     13678     13691     13676     13678     13692
     13680     13678     13691     13680     13678     13692     13691     13678     13692
     13678     13680     13682     13678     13680     13693     13678     13680     13694
     13682     13680     13693     13682     13680     13694     13693     13680     13694
     13680     13682     13684     13680     13682     13686     13684     13682     13686
     13682     13684     13696     13682     13686     13695     13703     13701     13713
     13703     13701     13714     13703     13701     13715     13713     13701     13714
     13713     13701     13715     13714     13701     13715     13701     13703     13705
     13701     13703     13716     13701     13703     13717     13705     13703     13716
     13705     13703     13717     13716     13703     13717     13703     13705     13707
     13703     13705     13718     13703     13705     13719     13707     13705     13718
     13707     13705     13719     13718     13705     13719     13705     13707     13709
     13705     13707     13711     13709     13707     13711     13707     13709     13721
     13707     13711     13720     13728     13726     13738     13728     13726     13739
     13728     13726     13740     13738     13726     13739     13738     13726     13740
     13739     13726     13740     13726     13728     13730     13726     13728     13741
     13726     13728     13742     13730     13728     13741     13730     13728     13742
     13741     13728     13742     13728     13730     13732     13728     13730     13743
     13728     13730     13744     13732     13730     13743     13732     13730     13744
     13743     13730     13744     13730     13732     13734     13730     13732     13736
     13734     13732     13736     13732     13734     13746     13732     13736     13745
     13753     13751     13763     13753     13751     13764     13753     13751     13765
     13763     13751     13764     13763     13751     13765     13764     13751     13765
     13751     13753     13755     13751     13753     13766     13751     13753     13767
     13755     13753     13766     13755     13753     13767     13766     13753     13767
     13753     13755     13757     13753     13755     13768     13753     13755     13769
     13757     13755     13768     13757     13755     13769     13768     13755     13769
     13755     13757     13759     13755     13757     13761     13759     13757     13761
     13757     13759     13771     13757     13761     13770     13778     13776     13788
     13778     13776     13789     13778     13776     13790     13788     13776     13789
     13788     13776     13790     13789     13776     13790     13776     13778     13780
     13776     13778     13791     13776     13778     13792     13780     13778     13791
     13780     13778     13792     13791     13778     13792     13778     13780     13782
     13778     13780     13793     13778     13780     13794     13782     13780     13793
     13782     13780     13794     13793     13780     13794     13780     13782     13784
     13780     13782     13786     13784     13782     13786     13782     13784     13796
     13782     13786     13795     13803     13801     13813     13803     13801     13814
     13803     13801     13815     13813     13801     13814     13813     13801     13815
     13814     13801     13815     13801     13803     13805     13801     13803     13816
     13801     13803     13817     13805     13803     13816     13805     13803     13817
     13816     13803     13817     13803     13805     13807     13803     13805     13818
     13803     13805     13819     13807     13805     13818     13807     13805     13819
     13818     13805     13819     13805     13807     13809     13805     13807     13811
     13809     13807     13811     13807     13809     13821     13807     13811     13820
     13828     13826     13838     13828     13826     13839     13828     13826     13840
     13838     13826     13839     13838     13826     13840     13839     13826     13840
     13826     13828     13830     13826     13828     13841     13826     13828     13842
     13830     13828     13841     13830     13828     13842     13841     13828     13842
     13828     13830     13832     13828     13830     13843     13828     13830     13844
     13832     13830     13843     13832     13830     13844     13843     13830     13844
     13830     13832     13834     13830     13832     13836     13834     13832     13836
     13832     13834     13846     13832     13836     13845     13853     13851     13863
     13853     13851     13864     13853     13851     13865     13863     13851     13864
     13863     13851     13865     13864     13851     13865     13851     13853     13855
     13851     13853     13866     13851     13853     13867     13855     13853     13866
     13855     13853     13867     13866     13853     13867     13853     13855     13857
     13853     13855     13868     13853     13855     13869     13857     13855     13868
     13857     13855     13869     13868     13855     13869     13855     13857     13859
     13855     13857     13861     13859     13857     13861     13857     13859     13871
     13857     13861     13870     13878     13876     13888     13878     13876     13889
     13878     13876     13890     13888     13876     13889     13888     13876     13890
     13889     13876     13890     13876     13878     13880     13876     13878     13891
     13876     13878     13892     13880     13878     13891     13880     13878     13892
     13891     13878     13892     13878     13880     13882     13878     13880     13893
     13878     13880     13894     13882     13880     13893     13882     13880     13894
     13893     13880     13894     13880     13882     13884     13880     13882     13886
     13884     13882     13886     13882     13884     13896     13882     13886     13895
     13903     13901     13913     13903     13901     13914     13903     13901     13915
     13913     13901     13914     13913     13901     13915     13914     13901     13915
     13901     13903     13905     13901     13903     13916     13901     13903     13917
     13905     13903     13916     13905     13903     13917     13916     13903     13917
     13903     13905     13907     13903     13905     13918     13903     13905     13919
     13907     13905     13918     13907     13905     13919     13918     13905     13919
     13905     13907     13909     13905     13907     13911     13909     13907     13911
     13907     13909     13921     13907     13911     13920     13928     13926     13938
     13928     13926     13939     13928     13926     13940     13938     13926     13939
     13938     13926     13940     13939     13926     13940     13926     13928     13930
     13926     13928     13941     13926     13928     13942     13930     13928     13941
     13930     13928     13942     13941     13928     13942     13928     13930     13932
     13928     13930     13943     13928     13930     13944     13932     13930     13943
     13932     13930     13944     13943     13930     13944     13930     13932     13934
     13930     13932     13936     13934     13932     13936     13932     13934     13946
     13932     13936     13945     13953     13951     13963     13953     13951     13964
     13953     13951     13965     13963     13951     13964     13963     13951     13965
     13964     13951     13965     13951     13953     13955     13951     13953     13966
     13951     13953     13967     13955     13953     13966     13955     13953     13967
     13966     13953     13967     13953     13955     13957     13953     13955     13968
     13953     13955     13969     13957     13955     13968     13957     13955     13969
     13968     13955     13969     13955     13957     13959     13955     13957     13961
     13959     13957     13961     13957     13959     13971     13957     13961     13970
     13978     13976     13988     13978     13976     13989     13978     13976     13990
     13988     13976     13989     13988     13976     13990     13989     13976     13990
     13976     13978     13980     13976     13978     13991     13976     13978     13992
     13980     13978     13991     13980     13978     13992     13991     13978     13992
     13978     13980     13982     13978     13980     13993     13978     13980     13994
     13982     13980     13993     13982     13980     13994     13993     13980     13994
     13980     13982     13984     13980     13982     13986     13984     13982     13986
     13982     13984     13996     13982     13986     13995     14003     14001     14013
     14003     14001     14014     14003     14001     14015     14013     14001     14014
     14013     14001     14015     14014     14001     14015     14001     14003     14005
     14001     14003     14016     14001     14003     14017     14005     14003     14016
     14005     14003     14017     14016     14003     14017     14003     14005     14007
     14003     14005     14018     14003     14005     14019     14007     14005     14018
     14007     14005     14019     14018     14005     14019     14005     14007     14009
     14005     14007     14011     14009     14007     14011     14007     14009     14021
     14007     14011     14020     14028     14026     14038     14028     14026     14039
     14028     14026     14040     14038     14026     14039     14038     14026     14040
     14039     14026     14040     14026     14028     14030     14026     14028     14041
     14026     14028     14042     14030     14028     14041     14030     14028     14042
     14041     14028     14042     14028     14030     14032     14028     14030     14043
     14028     14030     14044     14032     14030     14043     14032     14030     14044
     14043     14030     14044     14030     14032     14034     14030     14032     14036
     14034     14032     14036     14032     14034     14046     14032     14036     14045
     14053     14051     14063     14053     14051     14064     14053     14051     14065
     14063     14051     14064     14063     14051     14065     14064     14051     14065
     14051     14053     14055     14051     14053     14066     14051     14053     14067
     14055     14053     14066     14055     14053     14067     14066     14053     14067
     14053     14055     14057     14053     14055     14068     14053     14055     14069
     14057     14055     14068     14057     14055     14069     14068     14055     14069
     14055     14057     14059     14055     14057     14061     14059     14057     14061
     14057     14059     14071     14057     14061     14070     14078     14076     14088
     14078     14076     14089     14078     14076     14090     14088     14076     14089
     14088     14076     14090     14089     14076     14090     14076     14078     14080
     14076     14078     14091     14076     14078     14092     14080     14078     14091
     14080     14078     14092     14091     14078     14092     14078     14080     14082
     14078     14080     14093     14078     14080     14094     14082     14080     14093
     14082     14080     14094     14093     14080     14094     14080     14082     14084
     14080     14082     14086     14084     14082     14086     14082     14084     14096
     14082     14086     14095     14103     14101     14113     14103     14101     14114
     14103     14101     14115     14113     14101     14114     14113     14101     14115
     14114     14101     14115     14101     14103     14105     14101     14103     14116
     14101     14103     14117     14105     14103     14116     14105     14103     14117
     14116     14103     14117     14103     14105     14107     14103     14105     14118
     14103     14105     14119     14107     14105     14118     14107     14105     14119
     14118     14105     14119     14105     14107     14109     14105     14107     14111
     14109     14107     14111     14107     14109     14121     14107     14111     14120
     14128     14126     14138     14128     14126     14139     14128     14126     14140
     14138     14126     14139     14138     14126     14140     14139     14126     14140
     14126     14128     14130     14126     14128     14141     14126     14128     14142
     14130     14128     14141     14130     14128     14142     14141     14128     14142
     14128     14130     14132     14128     14130     14143     14128     14130     14144
     14132     14130     14143     14132     14130     14144     14143     14130     14144
     14130     14132     14134     14130     14132     14136     14134     14132     14136
     14132     14134     14146     14132     14136     14145     14153     14151     14163
     14153     14151     14164     14153     14151     14165     14163     14151     14164
     14163     14151     14165     14164     14151     14165     14151     14153     14155
     14151     14153     14166     14151     14153     14167     14155     14153     14166
     14155     14153     14167     14166     14153     14167     14153     14155     14157
     14153     14155     14168     14153     14155     14169     14157     14155     14168
     14157     14155     14169     14168     14155     14169     14155     14157     14159
     14155     14157     14161     14159     14157     14161     14157     14159     14171
     14157     14161     14170     14178     14176     14188     14178     14176     14189
     14178     14176     14190     14188     14176     14189     14188     14176     14190
     14189     14176     14190     14176     14178     14180     14176     14178     14191
     14176     14178     14192     14180     14178     14191     14180     14178     14192
     14191     14178     14192     14178     14180     14182     14178     14180     14193
     14178     14180     14194     14182     14180     14193     14182     14180     14194
     14193     14180     14194     14180     14182     14184     14180     14182     14186
     14184     14182     14186     14182     14184     14196     14182     14186     14195
     14203     14201     14213     14203     14201     14214     14203     14201     14215
     14213     14201     14214     14213     14201     14215     14214     14201     14215
     14201     14203     14205     14201     14203     14216     14201     14203     14217
     14205     14203     14216     14205     14203     14217     14216     14203     14217
     14203     14205     14207     14203     14205     14218     14203     14205     14219
     14207     14205     14218     14207     14205     14219     14218     14205     14219
     14205     14207     14209     14205     14207     14211     14209     14207     14211
     14207     14209     14221     14207     14211     14220     14228     14226     14238
     14228     14226     14239     14228     14226     14240     14238     14226     14239
     14238     14226     14240     14239     14226     14240     14226     14228     14230
     14226     14228     14241     14226     14228     14242     14230     14228     14241
     14230     14228     14242     14241     14228     14242     14228     14230     14232
     14228     14230     14243     14228     14230     14244     14232     14230     14243
     14232     14230     14244     14243     14230     14244     14230     14232     14234
     14230     14232     14236     14234     14232     14236     14232     14234     14246
     14232     14236     14245     14253     14251     14263     14253     14251     14264
     14253     14251     14265     14263     14251     14264     14263     14251     14265
     14264     14251     14265     14251     14253     14255     14251     14253     14266
     14251     14253     14267     14255     14253     14266     14255     14253     14267
     14266     14253     14267     14253     14255     14257     14253     14255     14268
     14253     14255     14269     14257     14255     14268     14257     14255     14269
     14268     14255     14269     14255     14257     14259     14255     14257     14261
     14259     14257     14261     14257     14259     14271     14257     14261     14270
     14278     14276     14288     14278     14276     14289     14278     14276     14290
     14288     14276     14289     14288     14276     14290     14289     14276     14290
     14276     14278     14280     14276     14278     14291     14276     14278     14292
     14280     14278     14291     14280     14278     14292     14291     14278     14292
     14278     14280     14282     14278     14280     14293     14278     14280     14294
     14282     14280     14293     14282     14280     14294     14293     14280     14294
     14280     14282     14284     14280     14282     14286     14284     14282     14286
     14282     14284     14296     14282     14286     14295     14303     14301     14313
     14303     14301     14314     14303     14301     14315     14313     14301     14314
     14313     14301     14315     14314     14301     14315     14301     14303     14305
     14301     14303     14316     14301     14303     14317     14305     14303     14316
     14305     14303     14317     14316     14303     14317     14303     14305     14307
     14303     14305     14318     14303     14305     14319     14307     14305     14318
     14307     14305     14319     14318     14305     14319     14305     14307     14309
     14305     14307     14311     14309     14307     14311     14307     14309     14321
     14307     14311     14320     14328     14326     14338     14328     14326     14339
     14328     14326     14340     14338     14326     14339     14338     14326     14340
     14339     14326     14340     14326     14328     14330     14326     14328     14341
     14326     14328     14342     14330     14328     14341     14330     14328     14342
     14341     14328     14342     14328     14330     14332     14328     14330     14343
     14328     14330     14344     14332     14330     14343     14332     14330     14344
     14343     14330     14344     14330     14332     14334     14330     14332     14336
     14334     14332     14336     14332     14334     14346     14332     14336     14345
     14353     14351     14363     14353     14351     14364     14353     14351     14365
     14363     14351     14364     14363     14351     14365     14364     14351     14365
     14351     14353     14355     14351     14353     14366     14351     14353     14367
     14355     14353     14366     14355     14353     14367     14366     14353     14367
     14353     14355     14357     14353     14355     14368     14353     14355     14369
     14357     14355     14368     14357     14355     14369     14368     14355     14369
     14355     14357     14359     14355     14357     14361     14359     14357     14361
     14357     14359     14371     14357     14361     14370     14378     14376     14388
     14378     14376     14389     14378     14376     14390     14388     14376     14389
     14388     14376     14390     14389     14376     14390     14376     14378     14380
     14376     14378     14391     14376     14378     14392     14380     14378     14391
     14380     14378     14392     14391     14378     14392     14378     14380     14382
     14378     14380     14393     14378     14380     14394     14382     14380     14393
     14382     14380     14394     14393     14380     14394     14380     14382     14384
     14380     14382     14386     14384     14382     14386     14382     14384     14396
     14382     14386     14395     14403     14401     14413     14403     14401     14414
     14403     14401     14415     14413     14401     14414     14413     14401     14415
     14414     14401     14415     14401     14403     14405     14401     14403     14416
     14401     14403     14417     14405     14403     14416     14405     14403     14417
     14416     14403     14417     14403     14405     14407     14403     14405     14418
     14403     14405     14419     14407     14405     14418     14407     14405     14419
     14418     14405     14419     14405     14407     14409     14405     14407     14411
     14409     14407     14411     14407     14409     14421     14407     14411     14420
     14428     14426     14438     14428     14426     14439     14428     14426     14440
     14438     14426     14439     14438     14426     14440     14439     14426     14440
     14426     14428     14430     14426     14428     14441     14426     14428     14442
     14430     14428     14441     14430     14428     14442     14441     14428     14442
     14428     14430     14432     14428     14430     14443     14428     14430     14444
     14432     14430     14443     14432     14430     14444     14443     14430     14444
     14430     14432     14434     14430     14432     14436     14434     14432     14436
     14432     14434     14446     14432     14436     14445     14453     14451     14463
     14453     14451     14464     14453     14451     14465     14463     14451     14464
     14463     14451     14465     14464     14451     14465     14451     14453     14455
     14451     14453     14466     14451     14453     14467     14455     14453     14466
     14455     14453     14467     14466     14453     14467     14453     14455     14457
     14453     14455     14468     14453     14455     14469     14457     14455     14468
     14457     14455     14469     14468     14455     14469     14455     14457     14459
     14455     14457     14461     14459     14457     14461     14457     14459     14471
     14457     14461     14470     14478     14476     14488     14478     14476     14489
     14478     14476     14490     14488     14476     14489     14488     14476     14490
     14489     14476     14490     14476     14478     14480     14476     14478     14491
     14476     14478     14492     14480     14478     14491     14480     14478     14492
     14491     14478     14492     14478     14480     14482     14478     14480     14493
     14478     14480     14494     14482     14480     14493     14482     14480     14494
     14493     14480     14494     14480     14482     14484     14480     14482     14486
     14484     14482     14486     14482     14484     14496     14482     14486     14495
     14503     14501     14513     14503     14501     14514     14503     14501     14515
     14513     14501     14514     14513     14501     14515     14514     14501     14515
     14501     14503     14505     14501     14503     14516     14501     14503     14517
     14505     14503     14516     14505     14503     14517     14516     14503     14517
     14503     14505     14507     14503     14505     14518     14503     14505     14519
     14507     14505     14518     14507     14505     14519     14518     14505     14519
     14505     14507     14509     14505     14507     14511     14509     14507     14511
     14507     14509     14521     14507     14511     14520     14528     14526     14538
     14528     14526     14539     14528     14526     14540     14538     14526     14539
     14538     14526     14540     14539     14526     14540     14526     14528     14530
     14526     14528     14541     14526     14528     14542     14530     14528     14541
     14530     14528     14542     14541     14528     14542     14528     14530     14532
     14528     14530     14543     14528     14530     14544     14532     14530     14543
     14532     14530     14544     14543     14530     14544     14530     14532     14534
     14530     14532     14536     14534     14532     14536     14532     14534     14546
     14532     14536     14545     14553     14551     14563     14553     14551     14564
     14553     14551     14565     14563     14551     14564     14563     14551     14565
     14564     14551     14565     14551     14553     14555     14551     14553     14566
     14551     14553     14567     14555     14553     14566     14555     14553     14567
     14566     14553     14567     14553     14555     14557     14553     14555     14568
     14553     14555     14569     14557     14555     14568     14557     14555     14569
     14568     14555     14569     14555     14557     14559     14555     14557     14561
     14559     14557     14561     14557     14559     14571     14557     14561     14570
     14578     14576     14588     14578     14576     14589     14578     14576     14590
     14588     14576     14589     14588     14576     14590     14589     14576     14590
     14576     14578     14580     14576     14578     14591     14576     14578     14592
     14580     14578     14591     14580     14578     14592     14591     14578     14592
     14578     14580     14582     14578     14580     14593     14578     14580     14594
     14582     14580     14593     14582     14580     14594     14593     14580     14594
     14580     14582     14584     14580     14582     14586     14584     14582     14586
     14582     14584     14596     14582     14586     14595     14603     14601     14613
     14603     14601     14614     14603     14601     14615     14613     14601     14614
     14613     14601     14615     14614     14601     14615     14601     14603     14605
     14601     14603     14616     14601     14603     14617     14605     14603     14616
     14605     14603     14617     14616     14603     14617     14603     14605     14607
     14603     14605     14618     14603     14605     14619     14607     14605     14618
     14607     14605     14619     14618     14605     14619     14605     14607     14609
     14605     14607     14611     14609     14607     14611     14607     14609     14621
     14607     14611     14620     14628     14626     14638     14628     14626     14639
     14628     14626     14640     14638     14626     14639     14638     14626     14640
     14639     14626     14640     14626     14628     14630     14626     14628     14641
     14626     14628     14642     14630     14628     14641     14630     14628     14642
     14641     14628     14642     14628     14630     14632     14628     14630     14643
     14628     14630     14644     14632     14630     14643     14632     14630     14644
     14643     14630     14644     14630     14632     14634     14630     14632     14636
     14634     14632     14636     14632     14634     14646     14632     14636     14645
     14653     14651     14663     14653     14651     14664     14653     14651     14665
     14663     14651     14664     14663     14651     14665     14664     14651     14665
     14651     14653     14655     14651     14653     14666     14651     14653     14667
     14655     14653     14666     14655     14653     14667     14666     14653     14667
     14653     14655     14657     14653     14655     14668     14653     14655     14669
     14657     14655     14668     14657     14655     14669     14668     14655     14669
     14655     14657     14659     14655     14657     14661     14659     14657     14661
     14657     14659     14671     14657     14661     14670     14678     14676     14688
     14678     14676     14689     14678     14676     14690     14688     14676     14689
     14688     14676     14690     14689     14676     14690     14676     14678     14680
     14676     14678     14691     14676     14678     14692     14680     14678     14691
     14680     14678     14692     14691     14678     14692     14678     14680     14682
     14678     14680     14693     14678     14680     14694     14682     14680     14693
     14682     14680     14694     14693     14680     14694     14680     14682     14684
     14680     14682     14686     14684     14682     14686     14682     14684     14696
     14682     14686     14695     14703     14701     14713     14703     14701     14714
     14703     14701     14715     14713     14701     14714     14713     14701     14715
     14714     14701     14715     14701     14703     14705     14701     14703     14716
     14701     14703     14717     14705     14703     14716     14705     14703     14717
     14716     14703     14717     14703     14705     14707     14703     14705     14718
     14703     14705     14719     14707     14705     14718     14707     14705     14719
     14718     14705     14719     14705     14707     14709     14705     14707     14711
     14709     14707     14711     14707     14709     14721     14707     14711     14720
     14728     14726     14738     14728     14726     14739     14728     14726     14740
     14738     14726     14739     14738     14726     14740     14739     14726     14740
     14726     14728     14730     14726     14728     14741     14726     14728     14742
     14730     14728     14741     14730     14728     14742     14741     14728     14742
     14728     14730     14732     14728     14730     14743     14728     14730     14744
     14732     14730     14743     14732     14730     14744     14743     14730     14744
     14730     14732     14734     14730     14732     14736     14734     14732     14736
     14732     14734     14746     14732     14736     14745     14753     14751     14763
     14753     14751     14764     14753     14751     14765     14763     14751     14764
     14763     14751     14765     14764     14751     14765     14751     14753     14755
     14751     14753     14766     14751     14753     14767     14755     14753     14766
     14755     14753     14767     14766     14753     14767     14753     14755     14757
     14753     14755     14768     14753     14755     14769     14757     14755     14768
     14757     14755     14769     14768     14755     14769     14755     14757     14759
     14755     14757     14761     14759     14757     14761     14757     14759     14771
     14757     14761     14770     14778     14776     14788     14778     14776     14789
     14778     14776     14790     14788     14776     14789     14788     14776     14790
     14789     14776     14790     14776     14778     14780     14776     14778     14791
     14776     14778     14792     14780     14778     14791     14780     14778     14792
     14791     14778     14792     14778     14780     14782     14778     14780     14793
     14778     14780     14794     14782     14780     14793     14782     14780     14794
     14793     14780     14794     14780     14782     14784     14780     14782     14786
     14784     14782     14786     14782     14784     14796     14782     14786     14795
     14803     14801     14813     14803     14801     14814     14803     14801     14815
     14813     14801     14814     14813     14801     14815     14814     14801     14815
     14801     14803     14805     14801     14803     14816     14801     14803     14817
     14805     14803     14816     14805     14803     14817     14816     14803     14817
     14803     14805     14807     14803     14805     14818     14803     14805     14819
     14807     14805     14818     14807     14805     14819     14818     14805     14819
     14805     14807     14809     14805     14807     14811     14809     14807     14811
     14807     14809     14821     14807     14811     14820     14828     14826     14838
     14828     14826     14839     14828     14826     14840     14838     14826     14839
     14838     14826     14840     14839     14826     14840     14826     14828     14830
     14826     14828     14841     14826     14828     14842     14830     14828     14841
     14830     14828     14842     14841     14828     14842     14828     14830     14832
     14828     14830     14843     14828     14830     14844     14832     14830     14843
     14832     14830     14844     14843     14830     14844     14830     14832     14834
     14830     14832     14836     14834     14832     14836     14832     14834     14846
     14832     14836     14845     14853     14851     14863     14853     14851     14864
     14853     14851     14865     14863     14851     14864     14863     14851     14865
     14864     14851     14865     14851     14853     14855     14851     14853     14866
     14851     14853     14867     14855     14853     14866     14855     14853     14867
     14866     14853     14867     14853     14855     14857     14853     14855     14868
     14853     14855     14869     14857     14855     14868     14857     14855     14869
     14868     14855     14869     14855     14857     14859     14855     14857     14861
     14859     14857     14861     14857     14859     14871     14857     14861     14870
     14878     14876     14888     14878     14876     14889     14878     14876     14890
     14888     14876     14889     14888     14876     14890     14889     14876     14890
     14876     14878     14880     14876     14878     14891     14876     14878     14892
     14880     14878     14891     14880     14878     14892     14891     14878     14892
     14878     14880     14882     14878     14880     14893     14878     14880     14894
     14882     14880     14893     14882     14880     14894     14893     14880     14894
     14880     14882     14884     14880     14882     14886     14884     14882     14886
     14882     14884     14896     14882     14886     14895     14903     14901     14913
     14903     14901     14914     14903     14901     14915     14913     14901     14914
     14913     14901     14915     14914     14901     14915     14901     14903     14905
     14901     14903     14916     14901     14903     14917     14905     14903     14916
     14905     14903     14917     14916     14903     14917     14903     14905     14907
     14903     14905     14918     14903     14905     14919     14907     14905     14918
     14907     14905     14919     14918     14905     14919     14905     14907     14909
     14905     14907     14911     14909     14907     14911     14907     14909     14921
     14907     14911     14920     14928     14926     14938     14928     14926     14939
     14928     14926     14940     14938     14926     14939     14938     14926     14940
     14939     14926     14940     14926     14928     14930     14926     14928     14941
     14926     14928     14942     14930     14928     14941     14930     14928     14942
     14941     14928     14942     14928     14930     14932     14928     14930     14943
     14928     14930     14944     14932     14930     14943     14932     14930     14944
     14943     14930     14944     14930     14932     14934     14930     14932     14936
     14934     14932     14936     14932     14934     14946     14932     14936     14945
     14953     14951     14963     14953     14951     14964     14953     14951     14965
     14963     14951     14964     14963     14951     14965     14964     14951     14965
     14951     14953     14955     14951     14953     14966     14951     14953     14967
     14955     14953     14966     14955     14953     14967     14966     14953     14967
     14953     14955     14957     14953     14955     14968     14953     14955     14969
     14957     14955     14968     14957     14955     14969     14968     14955     14969
     14955     14957     14959     14955     14957     14961     14959     14957     14961
     14957     14959     14971     14957     14961     14970     14978     14976     14988
     14978     14976     14989     14978     14976     14990     14988     14976     14989
     14988     14976     14990     14989     14976     14990     14976     14978     14980
     14976     14978     14991     14976     14978     14992     14980     14978     14991
     14980     14978     14992     14991     14978     14992     14978     14980     14982
     14978     14980     14993     14978     14980     14994     14982     14980     14993
     14982     14980     14994     14993     14980     14994     14980     14982     14984
     14980     14982     14986     14984     14982     14986     14982     14984     14996
     14982     14986     14995     15003     15001     15013     15003     15001     15014
     15003     15001     15015     15013     15001     15014     15013     15001     15015
     15014     15001     15015     15001     15003     15005     15001     15003     15016
     15001     15003     15017     15005     15003     15016     15005     15003     15017
     15016     15003     15017     15003     15005     15007     15003     15005     15018
     15003     15005     15019     15007     15005     15018     15007     15005     15019
     15018     15005     15019     15005     15007     15009     15005     15007     15011
     15009     15007     15011     15007     15009     15021     15007     15011     15020
     15028     15026     15038     15028     15026     15039     15028     15026     15040
     15038     15026     15039     15038     15026     15040     15039     15026     15040
     15026     15028     15030     15026     15028     15041     15026     15028     15042
     15030     15028     15041     15030     15028     15042     15041     15028     15042
     15028     15030     15032     15028     15030     15043     15028     15030     15044
     15032     15030     15043     15032     15030     15044     15043     15030     15044
     15030     15032     15034     15030     15032     15036     15034     15032     15036
     15032     15034     15046     15032     15036     15045     15053     15051     15063
     15053     15051     15064     15053     15051     15065     15063     15051     15064
     15063     15051     15065     15064     15051     15065     15051     15053     15055
     15051     15053     15066     15051     15053     15067     15055     15053     15066
     15055     15053     15067     15066     15053     15067     15053     15055     15057
     15053     15055     15068     15053     15055     15069     15057     15055     15068
     15057     15055     15069     15068     15055     15069     15055     15057     15059
     15055     15057     15061     15059     15057     15061     15057     15059     15071
     15057     15061     15070     15078     15076     15088     15078     15076     15089
     15078     15076     15090     15088     15076     15089     15088     15076     15090
     15089     15076     15090     15076     15078     15080     15076     15078     15091
     15076     15078     15092     15080     15078     15091     15080     15078     15092
     15091     15078     15092     15078     15080     15082     15078     15080     15093
     15078     15080     15094     15082     15080     15093     15082     15080     15094
     15093     15080     15094     15080     15082     15084     15080     15082     15086
     15084     15082     15086     15082     15084     15096     15082     15086     15095
     15103     15101     15113     15103     15101     15114     15103     15101     15115
     15113     15101     15114     15113     15101     15115     15114     15101     15115
     15101     15103     15105     15101     15103     15116     15101     15103     15117
     15105     15103     15116     15105     15103     15117     15116     15103     15117
     15103     15105     15107     15103     15105     15118     15103     15105     15119
     15107     15105     15118     15107     15105     15119     15118     15105     15119
     15105     15107     15109     15105     15107     15111     15109     15107     15111
     15107     15109     15121     15107     15111     15120     15128     15126     15138
     15128     15126     15139     15128     15126     15140     15138     15126     15139
     15138     15126     15140     15139     15126     15140     15126     15128     15130
     15126     15128     15141     15126     15128     15142     15130     15128     15141
     15130     15128     15142     15141     15128     15142     15128     15130     15132
     15128     15130     15143     15128     15130     15144     15132     15130     15143
     15132     15130     15144     15143     15130     15144     15130     15132     15134
     15130     15132     15136     15134     15132     15136     15132     15134     15146
     15132     15136     15145     15153     15151     15163     15153     15151     15164
     15153     15151     15165     15163     15151     15164     15163     15151     15165
     15164     15151     15165     15151     15153     15155     15151     15153     15166
     15151     15153     15167     15155     15153     15166     15155     15153     15167
     15166     15153     15167     15153     15155     15157     15153     15155     15168
     15153     15155     15169     15157     15155     15168     15157     15155     15169
     15168     15155     15169     15155     15157     15159     15155     15157     15161
     15159     15157     15161     15157     15159     15171     15157     15161     15170
     15178     15176     15188     15178     15176     15189     15178     15176     15190
     15188     15176     15189     15188     15176     15190     15189     15176     15190
     15176     15178     15180     15176     15178     15191     15176     15178     15192
     15180     15178     15191     15180     15178     15192     15191     15178     15192
     15178     15180     15182     15178     15180     15193     15178     15180     15194
     15182     15180     15193     15182     15180     15194     15193     15180     15194
     15180     15182     15184     15180     15182     15186     15184     15182     15186
     15182     15184     15196     15182     15186     15195     15203     15201     15213
     15203     15201     15214     15203     15201     15215     15213     15201     15214
     15213     15201     15215     15214     15201     15215     15201     15203     15205
     15201     15203     15216     15201     15203     15217     15205     15203     15216
     15205     15203     15217     15216     15203     15217     15203     15205     15207
     15203     15205     15218     15203     15205     15219     15207     15205     15218
     15207     15205     15219     15218     15205     15219     15205     15207     15209
     15205     15207     15211     15209     15207     15211     15207     15209     15221
     15207     15211     15220     15228     15226     15238     15228     15226     15239
     15228     15226     15240     15238     15226     15239     15238     15226     15240
     15239     15226     15240     15226     15228     15230     15226     15228     15241
     15226     15228     15242     15230     15228     15241     15230     15228     15242
     15241     15228     15242     15228     15230     15232     15228     15230     15243
     15228     15230     15244     15232     15230     15243     15232     15230     15244
     15243     15230     15244     15230     15232     15234     15230     15232     15236
     15234     15232     15236     15232     15234     15246     15232     15236     15245
     15253     15251     15263     15253     15251     15264     15253     15251     15265
     15263     15251     15264     15263     15251     15265     15264     15251     15265
     15251     15253     15255     15251     15253     15266     15251     15253     15267
     15255     15253     15266     15255     15253     15267     15266     15253     15267
     15253     15255     15257     15253     15255     15268     15253     15255     15269
     15257     15255     15268     15257     15255     15269     15268     15255     15269
     15255     15257     15259     15255     15257     15261     15259     15257     15261
     15257     15259     15271     15257     15261     15270     15278     15276     15288
     15278     15276     15289     15278     15276     15290     15288     15276     15289
     15288     15276     15290     15289     15276     15290     15276     15278     15280
     15276     15278     15291     15276     15278     15292     15280     15278     15291
     15280     15278     15292     15291     15278     15292     15278     15280     15282
     15278     15280     15293     15278     15280     15294     15282     15280     15293
     15282     15280     15294     15293     15280     15294     15280     15282     15284
     15280     15282     15286     15284     15282     15286     15282     15284     15296
     15282     15286     15295     15303     15301     15313     15303     15301     15314
     15303     15301     15315     15313     15301     15314     15313     15301     15315
     15314     15301     15315     15301     15303     15305     15301     15303     15316
     15301     15303     15317     15305     15303     15316     15305     15303     15317
     15316     15303     15317     15303     15305     15307     15303     15305     15318
     15303     15305     15319     15307     15305     15318     15307     15305     15319
     15318     15305     15319     15305     15307     15309     15305     15307     15311
     15309     15307     15311     15307     15309     15321     15307     15311     15320
     15328     15326     15338     15328     15326     15339     15328     15326     15340
     15338     15326     15339     15338     15326     15340     15339     15326     15340
     15326     15328     15330     15326     15328     15341     15326     15328     15342
     15330     15328     15341     15330     15328     15342     15341     15328     15342
     15328     15330     15332     15328     15330     15343     15328     15330     15344
     15332     15330     15343     15332     15330     15344     15343     15330     15344
     15330     15332     15334     15330     15332     15336     15334     15332     15336
     15332     15334     15346     15332     15336     15345     15353     15351     15363
     15353     15351     15364     15353     15351     15365     15363     15351     15364
     15363     15351     15365     15364     15351     15365     15351     15353     15355
     15351     15353     15366     15351     15353     15367     15355     15353     15366
     15355     15353     15367     15366     15353     15367     15353     15355     15357
     15353     15355     15368     15353     15355     15369     15357     15355     15368
     15357     15355     15369     15368     15355     15369     15355     15357     15359
     15355     15357     15361     15359     15357     15361     15357     15359     15371
     15357     15361     15370     15378     15376     15388     15378     15376     15389
     15378     15376     15390     15388     15376     15389     15388     15376     15390
     15389     15376     15390     15376     15378     15380     15376     15378     15391
     15376     15378     15392     15380     15378     15391     15380     15378     15392
     15391     15378     15392     15378     15380     15382     15378     15380     15393
     15378     15380     15394     15382     15380     15393     15382     15380     15394
     15393     15380     15394     15380     15382     15384     15380     15382     15386
     15384     15382     15386     15382     15384     15396     15382     15386     15395
     15403     15401     15413     15403     15401     15414     15403     15401     15415
     15413     15401     15414     15413     15401     15415     15414     15401     15415
     15401     15403     15405     15401     15403     15416     15401     15403     15417
     15405     15403     15416     15405     15403     15417     15416     15403     15417
     15403     15405     15407     15403     15405     15418     15403     15405     15419
     15407     15405     15418     15407     15405     15419     15418     15405     15419
     15405     15407     15409     15405     15407     15411     15409     15407     15411
     15407     15409     15421     15407     15411     15420     15428     15426     15438
     15428     15426     15439     15428     15426     15440     15438     15426     15439
     15438     15426     15440     15439     15426     15440     15426     15428     15430
     15426     15428     15441     15426     15428     15442     15430     15428     15441
     15430     15428     15442     15441     15428     15442     15428     15430     15432
     15428     15430     15443     15428     15430     15444     15432     15430     15443
     15432     15430     15444     15443     15430     15444     15430     15432     15434
     15430     15432     15436     15434     15432     15436     15432     15434     15446
     15432     15436     15445     15453     15451     15463     15453     15451     15464
     15453     15451     15465     15463     15451     15464     15463     15451     15465
     15464     15451     15465     15451     15453     15455     15451     15453     15466
     15451     15453     15467     15455     15453     15466     15455     15453     15467
     15466     15453     15467     15453     15455     15457     15453     15455     15468
     15453     15455     15469     15457     15455     15468     15457     15455     15469
     15468     15455     15469     15455     15457     15459     15455     15457     15461
     15459     15457     15461     15457     15459     15471     15457     15461     15470
     15478     15476     15488     15478     15476     15489     15478     15476     15490
     15488     15476     15489     15488     15476     15490     15489     15476     15490
     15476     15478     15480     15476     15478     15491     15476     15478     15492
     15480     15478     15491     15480     15478     15492     15491     15478     15492
     15478     15480     15482     15478     15480     15493     15478     15480     15494
     15482     15480     15493     15482     15480     15494     15493     15480     15494
     15480     15482     15484     15480     15482     15486     15484     15482     15486
     15482     15484     15496     15482     15486     15495     15503     15501     15513
     15503     15501     15514     15503     15501     15515     15513     15501     15514
     15513     15501     15515     15514     15501     15515     15501     15503     15505
     15501     15503     15516     15501     15503     15517     15505     15503     15516
     15505     15503     15517     15516     15503     15517     15503     15505     15507
     15503     15505     15518     15503     15505     15519     15507     15505     15518
     15507     15505     15519     15518     15505     15519     15505     15507     15509
     15505     15507     15511     15509     15507     15511     15507     15509     15521
     15507     15511     15520     15528     15526     15538     15528     15526     15539
     15528     15526     15540     15538     15526     15539     15538     15526     15540
     15539     15526     15540     15526     15528     15530     15526     15528     15541
     15526     15528     15542     15530     15528     15541     15530     15528     15542
     15541     15528     15542     15528     15530     15532     15528     15530     15543
     15528     15530     15544     15532     15530     15543     15532     15530     15544
     15543     15530     15544     15530     15532     15534     15530     15532     15536
     15534     15532     15536     15532     15534     15546     15532     15536     15545
     15553     15551     15563     15553     15551     15564     15553     15551     15565
     15563     15551     15564     15563     15551     15565     15564     15551     15565
     15551     15553     15555     15551     15553     15566     15551     15553     15567
     15555     15553     15566     15555     15553     15567     15566     15553     15567
     15553     15555     15557     15553     15555     15568     15553     15555     15569
     15557     15555     15568     15557     15555     15569     15568     15555     15569
     15555     15557     15559     15555     15557     15561     15559     15557     15561
     15557     15559     15571     15557     15561     15570     15578     15576     15588
     15578     15576     15589     15578     15576     15590     15588     15576     15589
     15588     15576     15590     15589     15576     15590     15576     15578     15580
     15576     15578     15591     15576     15578     15592     15580     15578     15591
     15580     15578     15592     15591     15578     15592     15578     15580     15582
     15578     15580     15593     15578     15580     15594     15582     15580     15593
     15582     15580     15594     15593     15580     15594     15580     15582     15584
     15580     15582     15586     15584     15582     15586     15582     15584     15596
     15582     15586     15595     15603     15601     15613     15603     15601     15614
     15603     15601     15615     15613     15601     15614     15613     15601     15615
     15614     15601     15615     15601     15603     15605     15601     15603     15616
     15601     15603     15617     15605     15603     15616     15605     15603     15617
     15616     15603     15617     15603     15605     15607     15603     15605     15618
     15603     15605     15619     15607     15605     15618     15607     15605     15619
     15618     15605     15619     15605     15607     15609     15605     15607     15611
     15609     15607     15611     15607     15609     15621     15607     15611     15620
     15628     15626     15638     15628     15626     15639     15628     15626     15640
     15638     15626     15639     15638     15626     15640     15639     15626     15640
     15626     15628     15630     15626     15628     15641     15626     15628     15642
     15630     15628     15641     15630     15628     15642     15641     15628     15642
     15628     15630     15632     15628     15630     15643     15628     15630     15644
     15632     15630     15643     15632     15630     15644     15643     15630     15644
     15630     15632     15634     15630     15632     15636     15634     15632     15636
     15632     15634     15646     15632     15636     15645     15653     15651     15663
     15653     15651     15664     15653     15651     15665     15663     15651     15664
     15663     15651     15665     15664     15651     15665     15651     15653     15655
     15651     15653     15666     15651     15653     15667     15655     15653     15666
     15655     15653     15667     15666     15653     15667     15653     15655     15657
     15653     15655     15668     15653     15655     15669     15657     15655     15668
     15657     15655     15669     15668     15655     15669     15655     15657     15659
     15655     15657     15661     15659     15657     15661     15657     15659     15671
     15657     15661     15670     15678     15676     15688     15678     15676     15689
     15678     15676     15690     15688     15676     15689     15688     15676     15690
     15689     15676     15690     15676     15678     15680     15676     15678     15691
     15676     15678     15692     15680     15678     15691     15680     15678     15692
     15691     15678     15692     15678     15680     15682     15678     15680     15693
     15678     15680     15694     15682     15680     15693     15682     15680     15694
     15693     15680     15694     15680     15682     15684     15680     15682     15686
     15684     15682     15686     15682     15684     15696     15682     15686     15695
     15703     15701     15713     15703     15701     15714     15703     15701     15715
     15713     15701     15714     15713     15701     15715     15714     15701     15715
     15701     15703     15705     15701     15703     15716     15701     15703     15717
     15705     15703     15716     15705     15703     15717     15716     15703     15717
     15703     15705     15707     15703     15705     15718     15703     15705     15719
     15707     15705     15718     15707     15705     15719     15718     15705     15719
     15705     15707     15709     15705     15707     15711     15709     15707     15711
     15707     15709     15721     15707     15711     15720     15728     15726     15738
     15728     15726     15739     15728     15726     15740     15738     15726     15739
     15738     15726     15740     15739     15726     15740     15726     15728     15730
     15726     15728     15741     15726     15728     15742     15730     15728     15741
     15730     15728     15742     15741     15728     15742     15728     15730     15732
     15728     15730     15743     15728     15730     15744     15732     15730     15743
     15732     15730     15744     15743     15730     15744     15730     15732     15734
     15730     15732     15736     15734     15732     15736     15732     15734     15746
     15732     15736     15745     15753     15751     15763     15753     15751     15764
     15753     15751     15765     15763     15751     15764     15763     15751     15765
     15764     15751     15765     15751     15753     15755     15751     15753     15766
     15751     15753     15767     15755     15753     15766     15755     15753     15767
     15766     15753     15767     15753     15755     15757     15753     15755     15768
     15753     15755     15769     15757     15755     15768     15757     15755     15769
     15768     15755     15769     15755     15757     15759     15755     15757     15761
     15759     15757     15761     15757     15759     15771     15757     15761     15770
     15778     15776     15788     15778     15776     15789     15778     15776     15790
     15788     15776     15789     15788     15776     15790     15789     15776     15790
     15776     15778     15780     15776     15778     15791     15776     15778     15792
     15780     15778     15791     15780     15778     15792     15791     15778     15792
     15778     15780     15782     15778     15780     15793     15778     15780     15794
     15782     15780     15793     15782     15780     15794     15793     15780     15794
     15780     15782     15784     15780     15782     15786     15784     15782     15786
     15782     15784     15796     15782     15786     15795     15803     15801     15813
     15803     15801     15814     15803     15801     15815     15813     15801     15814
     15813     15801     15815     15814     15801     15815     15801     15803     15805
     15801     15803     15816     15801     15803     15817     15805     15803     15816
     15805     15803     15817     15816     15803     15817     15803     15805     15807
     15803     15805     15818     15803     15805     15819     15807     15805     15818
     15807     15805     15819     15818     15805     15819     15805     15807     15809
     15805     15807     15811     15809     15807     15811     15807     15809     15821
     15807     15811     15820     15828     15826     15838     15828     15826     15839
     15828     15826     15840     15838     15826     15839     15838     15826     15840
     15839     15826     15840     15826     15828     15830     15826     15828     15841
     15826     15828     15842     15830     15828     15841     15830     15828     15842
     15841     15828     15842     15828     15830     15832     15828     15830     15843
     15828     15830     15844     15832     15830     15843     15832     15830     15844
     15843     15830     15844     15830     15832     15834     15830     15832     15836
     15834     15832     15836     15832     15834     15846     15832     15836     15845
     15853     15851     15863     15853     15851     15864     15853     15851     15865
     15863     15851     15864     15863     15851     15865     15864     15851     15865
     15851     15853     15855     15851     15853     15866     15851     15853     15867
     15855     15853     15866     15855     15853     15867     15866     15853     15867
     15853     15855     15857     15853     15855     15868     15853     15855     15869
     15857     15855     15868     15857     15855     15869     15868     15855     15869
     15855     15857     15859     15855     15857     15861     15859     15857     15861
     15857     15859     15871     15857     15861     15870     15878     15876     15888
     15878     15876     15889     15878     15876     15890     15888     15876     15889
     15888     15876     15890     15889     15876     15890     15876     15878     15880
     15876     15878     15891     15876     15878     15892     15880     15878     15891
     15880     15878     15892     15891     15878     15892     15878     15880     15882
     15878     15880     15893     15878     15880     15894     15882     15880     15893
     15882     15880     15894     15893     15880     15894     15880     15882     15884
     15880     15882     15886     15884     15882     15886     15882     15884     15896
     15882     15886     15895     15903     15901     15913     15903     15901     15914
     15903     15901     15915     15913     15901     15914     15913     15901     15915
     15914     15901     15915     15901     15903     15905     15901     15903     15916
     15901     15903     15917     15905     15903     15916     15905     15903     15917
     15916     15903     15917     15903     15905     15907     15903     15905     15918
     15903     15905     15919     15907     15905     15918     15907     15905     15919
     15918     15905     15919     15905     15907     15909     15905     15907     15911
     15909     15907     15911     15907     15909     15921     15907     15911     15920
     15928     15926     15938     15928     15926     15939     15928     15926     15940
     15938     15926     15939     15938     15926     15940     15939     15926     15940
     15926     15928     15930     15926     15928     15941     15926     15928     15942
     15930     15928     15941     15930     15928     15942     15941     15928     15942
     15928     15930     15932     15928     15930     15943     15928     15930     15944
     15932     15930     15943     15932     15930     15944     15943     15930     15944
     15930     15932     15934     15930     15932     15936     15934     15932     15936
     15932     15934     15946     15932     15936     15945     15953     15951     15963
     15953     15951     15964     15953     15951     15965     15963     15951     15964
     15963     15951     15965     15964     15951     15965     15951     15953     15955
     15951     15953     15966     15951     15953     15967     15955     15953     15966
     15955     15953     15967     15966     15953     15967     15953     15955     15957
     15953     15955     15968     15953     15955     15969     15957     15955     15968
     15957     15955     15969     15968     15955     15969     15955     15957     15959
     15955     15957     15961     15959     15957     15961     15957     15959     15971
     15957     15961     15970     15978     15976     15988     15978     15976     15989
     15978     15976     15990     15988     15976     15989     15988     15976     15990
     15989     15976     15990     15976     15978     15980     15976     15978     15991
     15976     15978     15992     15980     15978     15991     15980     15978     15992
     15991     15978     15992     15978     15980     15982     15978     15980     15993
     15978     15980     15994     15982     15980     15993     15982     15980     15994
     15993     15980     15994     15980     15982     15984     15980     15982     15986
     15984     15982     15986     15982     15984     15996     15982     15986     15995
     16003     16001     16013     16003     16001     16014     16003     16001     16015
     16013     16001     16014     16013     16001     16015     16014     16001     16015
     16001     16003     16005     16001     16003     16016     16001     16003     16017
     16005     16003     16016     16005     16003     16017     16016     16003     16017
     16003     16005     16007     16003     16005     16018     16003     16005     16019
     16007     16005     16018     16007     16005     16019     16018     16005     16019
     16005     16007     16009     16005     16007     16011     16009     16007     16011
     16007     16009     16021     16007     16011     16020     16028     16026     16038
     16028     16026     16039     16028     16026     16040     16038     16026     16039
     16038     16026     16040     16039     16026     16040     16026     16028     16030
     16026     16028     16041     16026     16028     16042     16030     16028     16041
     16030     16028     16042     16041     16028     16042     16028     16030     16032
     16028     16030     16043     16028     16030     16044     16032     16030     16043
     16032     16030     16044     16043     16030     16044     16030     16032     16034
     16030     16032     16036     16034     16032     16036     16032     16034     16046
     16032     16036     16045     16053     16051     16063     16053     16051     16064
     16053     16051     16065     16063     16051     16064     16063     16051     16065
     16064     16051     16065     16051     16053     16055     16051     16053     16066
     16051     16053     16067     16055     16053     16066     16055     16053     16067
     16066     16053     16067     16053     16055     16057     16053     16055     16068
     16053     16055     16069     16057     16055     16068     16057     16055     16069
     16068     16055     16069     16055     16057     16059     16055     16057     16061
     16059     16057     16061     16057     16059     16071     16057     16061     16070
     16078     16076     16088     16078     16076     16089     16078     16076     16090
     16088     16076     16089     16088     16076     16090     16089     16076     16090
     16076     16078     16080     16076     16078     16091     16076     16078     16092
     16080     16078     16091     16080     16078     16092     16091     16078     16092
     16078     16080     16082     16078     16080     16093     16078     16080     16094
     16082     16080     16093     16082     16080     16094     16093     16080     16094
     16080     16082     16084     16080     16082     16086     16084     16082     16086
     16082     16084     16096     16082     16086     16095     16103     16101     16113
     16103     16101     16114     16103     16101     16115     16113     16101     16114
     16113     16101     16115     16114     16101     16115     16101     16103     16105
     16101     16103     16116     16101     16103     16117     16105     16103     16116
     16105     16103     16117     16116     16103     16117     16103     16105     16107
     16103     16105     16118     16103     16105     16119     16107     16105     16118
     16107     16105     16119     16118     16105     16119     16105     16107     16109
     16105     16107     16111     16109     16107     16111     16107     16109     16121
     16107     16111     16120     16128     16126     16138     16128     16126     16139
     16128     16126     16140     16138     16126     16139     16138     16126     16140
     16139     16126     16140     16126     16128     16130     16126     16128     16141
     16126     16128     16142     16130     16128     16141     16130     16128     16142
     16141     16128     16142     16128     16130     16132     16128     16130     16143
     16128     16130     16144     16132     16130     16143     16132     16130     16144
     16143     16130     16144     16130     16132     16134     16130     16132     16136
     16134     16132     16136     16132     16134     16146     16132     16136     16145
     16153     16151     16163     16153     16151     16164     16153     16151     16165
     16163     16151     16164     16163     16151     16165     16164     16151     16165
     16151     16153     16155     16151     16153     16166     16151     16153     16167
     16155     16153     16166     16155     16153     16167     16166     16153     16167
     16153     16155     16157     16153     16155     16168     16153     16155     16169
     16157     16155     16168     16157     16155     16169     16168     16155     16169
     16155     16157     16159     16155     16157     16161     16159     16157     16161
     16157     16159     16171     16157     16161     16170     16178     16176     16188
     16178     16176     16189     16178     16176     16190     16188     16176     16189
     16188     16176     16190     16189     16176     16190     16176     16178     16180
     16176     16178     16191     16176     16178     16192     16180     16178     16191
     16180     16178     16192     16191     16178     16192     16178     16180     16182
     16178     16180     16193     16178     16180     16194     16182     16180     16193
     16182     16180     16194     16193     16180     16194     16180     16182     16184
     16180     16182     16186     16184     16182     16186     16182     16184     16196
     16182     16186     16195     16203     16201     16213     16203     16201     16214
     16203     16201     16215     16213     16201     16214     16213     16201     16215
     16214     16201     16215     16201     16203     16205     16201     16203     16216
     16201     16203     16217     16205     16203     16216     16205     16203     16217
     16216     16203     16217     16203     16205     16207     16203     16205     16218
     16203     16205     16219     16207     16205     16218     16207     16205     16219
     16218     16205     16219     16205     16207     16209     16205     16207     16211
     16209     16207     16211     16207     16209     16221     16207     16211     16220
     16228     16226     16238     16228     16226     16239     16228     16226     16240
     16238     16226     16239     16238     16226     16240     16239     16226     16240
     16226     16228     16230     16226     16228     16241     16226     16228     16242
     16230     16228     16241     16230     16228     16242     16241     16228     16242
     16228     16230     16232     16228     16230     16243     16228     16230     16244
     16232     16230     16243     16232     16230     16244     16243     16230     16244
     16230     16232     16234     16230     16232     16236     16234     16232     16236
     16232     16234     16246     16232     16236     16245     16253     16251     16263
     16253     16251     16264     16253     16251     16265     16263     16251     16264
     16263     16251     16265     16264     16251     16265     16251     16253     16255
     16251     16253     16266     16251     16253     16267     16255     16253     16266
     16255     16253     16267     16266     16253     16267     16253     16255     16257
     16253     16255     16268     16253     16255     16269     16257     16255     16268
     16257     16255     16269     16268     16255     16269     16255     16257     16259
     16255     16257     16261     16259     16257     16261     16257     16259     16271
     16257     16261     16270     16278     16276     16288     16278     16276     16289
     16278     16276     16290     16288     16276     16289     16288     16276     16290
     16289     16276     16290     16276     16278     16280     16276     16278     16291
     16276     16278     16292     16280     16278     16291     16280     16278     16292
     16291     16278     16292     16278     16280     16282     16278     16280     16293
     16278     16280     16294     16282     16280     16293     16282     16280     16294
     16293     16280     16294     16280     16282     16284     16280     16282     16286
     16284     16282     16286     16282     16284     16296     16282     16286     16295
     16303     16301     16313     16303     16301     16314     16303     16301     16315
     16313     16301     16314     16313     16301     16315     16314     16301     16315
     16301     16303     16305     16301     16303     16316     16301     16303     16317
     16305     16303     16316     16305     16303     16317     16316     16303     16317
     16303     16305     16307     16303     16305     16318     16303     16305     16319
     16307     16305     16318     16307     16305     16319     16318     16305     16319
     16305     16307     16309     16305     16307     16311     16309     16307     16311
     16307     16309     16321     16307     16311     16320     16328     16326     16338
     16328     16326     16339     16328     16326     16340     16338     16326     16339
     16338     16326     16340     16339     16326     16340     16326     16328     16330
     16326     16328     16341     16326     16328     16342     16330     16328     16341
     16330     16328     16342     16341     16328     16342     16328     16330     16332
     16328     16330     16343     16328     16330     16344     16332     16330     16343
     16332     16330     16344     16343     16330     16344     16330     16332     16334
     16330     16332     16336     16334     16332     16336     16332     16334     16346
     16332     16336     16345     16353     16351     16363     16353     16351     16364
     16353     16351     16365     16363     16351     16364     16363     16351     16365
     16364     16351     16365     16351     16353     16355     16351     16353     16366
     16351     16353     16367     16355     16353     16366     16355     16353     16367
     16366     16353     16367     16353     16355     16357     16353     16355     16368
     16353     16355     16369     16357     16355     16368     16357     16355     16369
     16368     16355     16369     16355     16357     16359     16355     16357     16361
     16359     16357     16361     16357     16359     16371     16357     16361     16370
     16378     16376     16388     16378     16376     16389     16378     16376     16390
     16388     16376     16389     16388     16376     16390     16389     16376     16390
     16376     16378     16380     16376     16378     16391     16376     16378     16392
     16380     16378     16391     16380     16378     16392     16391     16378     16392
     16378     16380     16382     16378     16380     16393     16378     16380     16394
     16382     16380     16393     16382     16380     16394     16393     16380     16394
     16380     16382     16384     16380     16382     16386     16384     16382     16386
     16382     16384     16396     16382     16386     16395     16403     16401     16413
     16403     16401     16414     16403     16401     16415     16413     16401     16414
     16413     16401     16415     16414     16401     16415     16401     16403     16405
     16401     16403     16416     16401     16403     16417     16405     16403     16416
     16405     16403     16417     16416     16403     16417     16403     16405     16407
     16403     16405     16418     16403     16405     16419     16407     16405     16418
     16407     16405     16419     16418     16405     16419     16405     16407     16409
     16405     16407     16411     16409     16407     16411     16407     16409     16421
     16407     16411     16420     16428     16426     16438     16428     16426     16439
     16428     16426     16440     16438     16426     16439     16438     16426     16440
     16439     16426     16440     16426     16428     16430     16426     16428     16441
     16426     16428     16442     16430     16428     16441     16430     16428     16442
     16441     16428     16442     16428     16430     16432     16428     16430     16443
     16428     16430     16444     16432     16430     16443     16432     16430     16444
     16443     16430     16444     16430     16432     16434     16430     16432     16436
     16434     16432     16436     16432     16434     16446     16432     16436     16445
     16453     16451     16463     16453     16451     16464     16453     16451     16465
     16463     16451     16464     16463     16451     16465     16464     16451     16465
     16451     16453     16455     16451     16453     16466     16451     16453     16467
     16455     16453     16466     16455     16453     16467     16466     16453     16467
     16453     16455     16457     16453     16455     16468     16453     16455     16469
     16457     16455     16468     16457     16455     16469     16468     16455     16469
     16455     16457     16459     16455     16457     16461     16459     16457     16461
     16457     16459     16471     16457     16461     16470     16478     16476     16488
     16478     16476     16489     16478     16476     16490     16488     16476     16489
     16488     16476     16490     16489     16476     16490     16476     16478     16480
     16476     16478     16491     16476     16478     16492     16480     16478     16491
     16480     16478     16492     16491     16478     16492     16478     16480     16482
     16478     16480     16493     16478     16480     16494     16482     16480     16493
     16482     16480     16494     16493     16480     16494     16480     16482     16484
     16480     16482     16486     16484     16482     16486     16482     16484     16496
     16482     16486     16495     16503     16501     16513     16503     16501     16514
     16503     16501     16515     16513     16501     16514     16513     16501     16515
     16514     16501     16515     16501     16503     16505     16501     16503     16516
     16501     16503     16517     16505     16503     16516     16505     16503     16517
     16516     16503     16517     16503     16505     16507     16503     16505     16518
     16503     16505     16519     16507     16505     16518     16507     16505     16519
     16518     16505     16519     16505     16507     16509     16505     16507     16511
     16509     16507     16511     16507     16509     16521     16507     16511     16520
     16528     16526     16538     16528     16526     16539     16528     16526     16540
     16538     16526     16539     16538     16526     16540     16539     16526     16540
     16526     16528     16530     16526     16528     16541     16526     16528     16542
     16530     16528     16541     16530     16528     16542     16541     16528     16542
     16528     16530     16532     16528     16530     16543     16528     16530     16544
     16532     16530     16543     16532     16530     16544     16543     16530     16544
     16530     16532     16534     16530     16532     16536     16534     16532     16536
     16532     16534     16546     16532     16536     16545     16553     16551     16563
     16553     16551     16564     16553     16551     16565     16563     16551     16564
     16563     16551     16565     16564     16551     16565     16551     16553     16555
     16551     16553     16566     16551     16553     16567     16555     16553     16566
     16555     16553     16567     16566     16553     16567     16553     16555     16557
     16553     16555     16568     16553     16555     16569     16557     16555     16568
     16557     16555     16569     16568     16555     16569     16555     16557     16559
     16555     16557     16561     16559     16557     16561     16557     16559     16571
     16557     16561     16570     16578     16576     16588     16578     16576     16589
     16578     16576     16590     16588     16576     16589     16588     16576     16590
     16589     16576     16590     16576     16578     16580     16576     16578     16591
     16576     16578     16592     16580     16578     16591     16580     16578     16592
     16591     16578     16592     16578     16580     16582     16578     16580     16593
     16578     16580     16594     16582     16580     16593     16582     16580     16594
     16593     16580     16594     16580     16582     16584     16580     16582     16586
     16584     16582     16586     16582     16584     16596     16582     16586     16595
     16603     16601     16613     16603     16601     16614     16603     16601     16615
     16613     16601     16614     16613     16601     16615     16614     16601     16615
     16601     16603     16605     16601     16603     16616     16601     16603     16617
     16605     16603     16616     16605     16603     16617     16616     16603     16617
     16603     16605     16607     16603     16605     16618     16603     16605     16619
     16607     16605     16618     16607     16605     16619     16618     16605     16619
     16605     16607     16609     16605     16607     16611     16609     16607     16611
     16607     16609     16621     16607     16611     16620     16628     16626     16638
     16628     16626     16639     16628     16626     16640     16638     16626     16639
     16638     16626     16640     16639     16626     16640     16626     16628     16630
     16626     16628     16641     16626     16628     16642     16630     16628     16641
     16630     16628     16642     16641     16628     16642     16628     16630     16632
     16628     16630     16643     16628     16630     16644     16632     16630     16643
     16632     16630     16644     16643     16630     16644     16630     16632     16634
     16630     16632     16636     16634     16632     16636     16632     16634     16646
     16632     16636     16645     16653     16651     16663     16653     16651     16664
     16653     16651     16665     16663     16651     16664     16663     16651     16665
     16664     16651     16665     16651     16653     16655     16651     16653     16666
     16651     16653     16667     16655     16653     16666     16655     16653     16667
     16666     16653     16667     16653     16655     16657     16653     16655     16668
     16653     16655     16669     16657     16655     16668     16657     16655     16669
     16668     16655     16669     16655     16657     16659     16655     16657     16661
     16659     16657     16661     16657     16659     16671     16657     16661     16670
     16678     16676     16688     16678     16676     16689     16678     16676     16690
     16688     16676     16689     16688     16676     16690     16689     16676     16690
     16676     16678     16680     16676     16678     16691     16676     16678     16692
     16680     16678     16691     16680     16678     16692     16691     16678     16692
     16678     16680     16682     16678     16680     16693     16678     16680     16694
     16682     16680     16693     16682     16680     16694     16693     16680     16694
     16680     16682     16684     16680     16682     16686     16684     16682     16686
     16682     16684     16696     16682     16686     16695     16703     16701     16713
     16703     16701     16714     16703     16701     16715     16713     16701     16714
     16713     16701     16715     16714     16701     16715     16701     16703     16705
     16701     16703     16716     16701     16703     16717     16705     16703     16716
     16705     16703     16717     16716     16703     16717     16703     16705     16707
     16703     16705     16718     16703     16705     16719     16707     16705     16718
     16707     16705     16719     16718     16705     16719     16705     16707     16709
     16705     16707     16711     16709     16707     16711     16707     16709     16721
     16707     16711     16720     16728     16726     16738     16728     16726     16739
     16728     16726     16740     16738     16726     16739     16738     16726     16740
     16739     16726     16740     16726     16728     16730     16726     16728     16741
     16726     16728     16742     16730     16728     16741     16730     16728     16742
     16741     16728     16742     16728     16730     16732     16728     16730     16743
     16728     16730     16744     16732     16730     16743     16732     16730     16744
     16743     16730     16744     16730     16732     16734     16730     16732     16736
     16734     16732     16736     16732     16734     16746     16732     16736     16745
     16753     16751     16763     16753     16751     16764     16753     16751     16765
     16763     16751     16764     16763     16751     16765     16764     16751     16765
     16751     16753     16755     16751     16753     16766     16751     16753     16767
     16755     16753     16766     16755     16753     16767     16766     16753     16767
     16753     16755     16757     16753     16755     16768     16753     16755     16769
     16757     16755     16768     16757     16755     16769     16768     16755     16769
     16755     16757     16759     16755     16757     16761     16759     16757     16761
     16757     16759     16771     16757     16761     16770     16778     16776     16788
     16778     16776     16789     16778     16776     16790     16788     16776     16789
     16788     16776     16790     16789     16776     16790     16776     16778     16780
     16776     16778     16791     16776     16778     16792     16780     16778     16791
     16780     16778     16792     16791     16778     16792     16778     16780     16782
     16778     16780     16793     16778     16780     16794     16782     16780     16793
     16782     16780     16794     16793     16780     16794     16780     16782     16784
     16780     16782     16786     16784     16782     16786     16782     16784     16796
     16782     16786     16795     16803     16801     16813     16803     16801     16814
     16803     16801     16815     16813     16801     16814     16813     16801     16815
     16814     16801     16815     16801     16803     16805     16801     16803     16816
     16801     16803     16817     16805     16803     16816     16805     16803     16817
     16816     16803     16817     16803     16805     16807     16803     16805     16818
     16803     16805     16819     16807     16805     16818     16807     16805     16819
     16818     16805     16819     16805     16807     16809     16805     16807     16811
     16809     16807     16811     16807     16809     16821     16807     16811     16820
     16828     16826     16838     16828     16826     16839     16828     16826     16840
     16838     16826     16839     16838     16826     16840     16839     16826     16840
     16826     16828     16830     16826     16828     16841     16826     16828     16842
     16830     16828     16841     16830     16828     16842     16841     16828     16842
     16828     16830     16832     16828     16830     16843     16828     16830     16844
     16832     16830     16843     16832     16830     16844     16843     16830     16844
     16830     16832     16834     16830     16832     16836     16834     16832     16836
     16832     16834     16846     16832     16836     16845     16853     16851     16863
     16853     16851     16864     16853     16851     16865     16863     16851     16864
     16863     16851     16865     16864     16851     16865     16851     16853     16855
     16851     16853     16866     16851     16853     16867     16855     16853     16866
     16855     16853     16867     16866     16853     16867     16853     16855     16857
     16853     16855     16868     16853     16855     16869     16857     16855     16868
     16857     16855     16869     16868     16855     16869     16855     16857     16859
     16855     16857     16861     16859     16857     16861     16857     16859     16871
     16857     16861     16870     16878     16876     16888     16878     16876     16889
     16878     16876     16890     16888     16876     16889     16888     16876     16890
     16889     16876     16890     16876     16878     16880     16876     16878     16891
     16876     16878     16892     16880     16878     16891     16880     16878     16892
     16891     16878     16892     16878     16880     16882     16878     16880     16893
     16878     16880     16894     16882     16880     16893     16882     16880     16894
     16893     16880     16894     16880     16882     16884     16880     16882     16886
     16884     16882     16886     16882     16884     16896     16882     16886     16895
     16903     16901     16913     16903     16901     16914     16903     16901     16915
     16913     16901     16914     16913     16901     16915     16914     16901     16915
     16901     16903     16905     16901     16903     16916     16901     16903     16917
     16905     16903     16916     16905     16903     16917     16916     16903     16917
     16903     16905     16907     16903     16905     16918     16903     16905     16919
     16907     16905     16918     16907     16905     16919     16918     16905     16919
     16905     16907     16909     16905     16907     16911     16909     16907     16911
     16907     16909     16921     16907     16911     16920     16928     16926     16938
     16928     16926     16939     16928     16926     16940     16938     16926     16939
     16938     16926     16940     16939     16926     16940     16926     16928     16930
     16926     16928     16941     16926     16928     16942     16930     16928     16941
     16930     16928     16942     16941     16928     16942     16928     16930     16932
     16928     16930     16943     16928     16930     16944     16932     16930     16943
     16932     16930     16944     16943     16930     16944     16930     16932     16934
     16930     16932     16936     16934     16932     16936     16932     16934     16946
     16932     16936     16945     16953     16951     16963     16953     16951     16964
     16953     16951     16965     16963     16951     16964     16963     16951     16965
     16964     16951     16965     16951     16953     16955     16951     16953     16966
     16951     16953     16967     16955     16953     16966     16955     16953     16967
     16966     16953     16967     16953     16955     16957     16953     16955     16968
     16953     16955     16969     16957     16955     16968     16957     16955     16969
     16968     16955     16969     16955     16957     16959     16955     16957     16961
     16959     16957     16961     16957     16959     16971     16957     16961     16970
     16978     16976     16988     16978     16976     16989     16978     16976     16990
     16988     16976     16989     16988     16976     16990     16989     16976     16990
     16976     16978     16980     16976     16978     16991     16976     16978     16992
     16980     16978     16991     16980     16978     16992     16991     16978     16992
     16978     16980     16982     16978     16980     16993     16978     16980     16994
     16982     16980     16993     16982     16980     16994     16993     16980     16994
     16980     16982     16984     16980     16982     16986     16984     16982     16986
     16982     16984     16996     16982     16986     16995     17003     17001     17013
     17003     17001     17014     17003     17001     17015     17013     17001     17014
     17013     17001     17015     17014     17001     17015     17001     17003     17005
     17001     17003     17016     17001     17003     17017     17005     17003     17016
     17005     17003     17017     17016     17003     17017     17003     17005     17007
     17003     17005     17018     17003     17005     17019     17007     17005     17018
     17007     17005     17019     17018     17005     17019     17005     17007     17009
     17005     17007     17011     17009     17007     17011     17007     17009     17021
     17007     17011     17020     17028     17026     17038     17028     17026     17039
     17028     17026     17040     17038     17026     17039     17038     17026     17040
     17039     17026     17040     17026     17028     17030     17026     17028     17041
     17026     17028     17042     17030     17028     17041     17030     17028     17042
     17041     17028     17042     17028     17030     17032     17028     17030     17043
     17028     17030     17044     17032     17030     17043     17032     17030     17044
     17043     17030     17044     17030     17032     17034     17030     17032     17036
     17034     17032     17036     17032     17034     17046     17032     17036     17045
     17053     17051     17063     17053     17051     17064     17053     17051     17065
     17063     17051     17064     17063     17051     17065     17064     17051     17065
     17051     17053     17055     17051     17053     17066     17051     17053     17067
     17055     17053     17066     17055     17053     17067     17066     17053     17067
     17053     17055     17057     17053     17055     17068     17053     17055     17069
     17057     17055     17068     17057     17055     17069     17068     17055     17069
     17055     17057     17059     17055     17057     17061     17059     17057     17061
     17057     17059     17071     17057     17061     17070     17078     17076     17088
     17078     17076     17089     17078     17076     17090     17088     17076     17089
     17088     17076     17090     17089     17076     17090     17076     17078     17080
     17076     17078     17091     17076     17078     17092     17080     17078     17091
     17080     17078     17092     17091     17078     17092     17078     17080     17082
     17078     17080     17093     17078     17080     17094     17082     17080     17093
     17082     17080     17094     17093     17080     17094     17080     17082     17084
     17080     17082     17086     17084     17082     17086     17082     17084     17096
     17082     17086     17095     17103     17101     17113     17103     17101     17114
     17103     17101     17115     17113     17101     17114     17113     17101     17115
     17114     17101     17115     17101     17103     17105     17101     17103     17116
     17101     17103     17117     17105     17103     17116     17105     17103     17117
     17116     17103     17117     17103     17105     17107     17103     17105     17118
     17103     17105     17119     17107     17105     17118     17107     17105     17119
     17118     17105     17119     17105     17107     17109     17105     17107     17111
     17109     17107     17111     17107     17109     17121     17107     17111     17120
     17128     17126     17138     17128     17126     17139     17128     17126     17140
     17138     17126     17139     17138     17126     17140     17139     17126     17140
     17126     17128     17130     17126     17128     17141     17126     17128     17142
     17130     17128     17141     17130     17128     17142     17141     17128     17142
     17128     17130     17132     17128     17130     17143     17128     17130     17144
     17132     17130     17143     17132     17130     17144     17143     17130     17144
     17130     17132     17134     17130     17132     17136     17134     17132     17136
     17132     17134     17146     17132     17136     17145     17153     17151     17163
     17153     17151     17164     17153     17151     17165     17163     17151     17164
     17163     17151     17165     17164     17151     17165     17151     17153     17155
     17151     17153     17166     17151     17153     17167     17155     17153     17166
     17155     17153     17167     17166     17153     17167     17153     17155     17157
     17153     17155     17168     17153     17155     17169     17157     17155     17168
     17157     17155     17169     17168     17155     17169     17155     17157     17159
     17155     17157     17161     17159     17157     17161     17157     17159     17171
     17157     17161     17170     17178     17176     17188     17178     17176     17189
     17178     17176     17190     17188     17176     17189     17188     17176     17190
     17189     17176     17190     17176     17178     17180     17176     17178     17191
     17176     17178     17192     17180     17178     17191     17180     17178     17192
     17191     17178     17192     17178     17180     17182     17178     17180     17193
     17178     17180     17194     17182     17180     17193     17182     17180     17194
     17193     17180     17194     17180     17182     17184     17180     17182     17186
     17184     17182     17186     17182     17184     17196     17182     17186     17195
     17203     17201     17213     17203     17201     17214     17203     17201     17215
     17213     17201     17214     17213     17201     17215     17214     17201     17215
     17201     17203     17205     17201     17203     17216     17201     17203     17217
     17205     17203     17216     17205     17203     17217     17216     17203     17217
     17203     17205     17207     17203     17205     17218     17203     17205     17219
     17207     17205     17218     17207     17205     17219     17218     17205     17219
     17205     17207     17209     17205     17207     17211     17209     17207     17211
     17207     17209     17221     17207     17211     17220     17228     17226     17238
     17228     17226     17239     17228     17226     17240     17238     17226     17239
     17238     17226     17240     17239     17226     17240     17226     17228     17230
     17226     17228     17241     17226     17228     17242     17230     17228     17241
     17230     17228     17242     17241     17228     17242     17228     17230     17232
     17228     17230     17243     17228     17230     17244     17232     17230     17243
     17232     17230     17244     17243     17230     17244     17230     17232     17234
     17230     17232     17236     17234     17232     17236     17232     17234     17246
     17232     17236     17245     17253     17251     17263     17253     17251     17264
     17253     17251     17265     17263     17251     17264     17263     17251     17265
     17264     17251     17265     17251     17253     17255     17251     17253     17266
     17251     17253     17267     17255     17253     17266     17255     17253     17267
     17266     17253     17267     17253     17255     17257     17253     17255     17268
     17253     17255     17269     17257     17255     17268     17257     17255     17269
     17268     17255     17269     17255     17257     17259     17255     17257     17261
     17259     17257     17261     17257     17259     17271     17257     17261     17270
     17278     17276     17288     17278     17276     17289     17278     17276     17290
     17288     17276     17289     17288     17276     17290     17289     17276     17290
     17276     17278     17280     17276     17278     17291     17276     17278     17292
     17280     17278     17291     17280     17278     17292     17291     17278     17292
     17278     17280     17282     17278     17280     17293     17278     17280     17294
     17282     17280     17293     17282     17280     17294     17293     17280     17294
     17280     17282     17284     17280     17282     17286     17284     17282     17286
     17282     17284     17296     17282     17286     17295     17303     17301     17313
     17303     17301     17314     17303     17301     17315     17313     17301     17314
     17313     17301     17315     17314     17301     17315     17301     17303     17305
     17301     17303     17316     17301     17303     17317     17305     17303     17316
     17305     17303     17317     17316     17303     17317     17303     17305     17307
     17303     17305     17318     17303     17305     17319     17307     17305     17318
     17307     17305     17319     17318     17305     17319     17305     17307     17309
     17305     17307     17311     17309     17307     17311     17307     17309     17321
     17307     17311     17320     17328     17326     17338     17328     17326     17339
     17328     17326     17340     17338     17326     17339     17338     17326     17340
     17339     17326     17340     17326     17328     17330     17326     17328     17341
     17326     17328     17342     17330     17328     17341     17330     17328     17342
     17341     17328     17342     17328     17330     17332     17328     17330     17343
     17328     17330     17344     17332     17330     17343     17332     17330     17344
     17343     17330     17344     17330     17332     17334     17330     17332     17336
     17334     17332     17336     17332     17334     17346     17332     17336     17345
     17353     17351     17363     17353     17351     17364     17353     17351     17365
     17363     17351     17364     17363     17351     17365     17364     17351     17365
     17351     17353     17355     17351     17353     17366     17351     17353     17367
     17355     17353     17366     17355     17353     17367     17366     17353     17367
     17353     17355     17357     17353     17355     17368     17353     17355     17369
     17357     17355     17368     17357     17355     17369     17368     17355     17369
     17355     17357     17359     17355     17357     17361     17359     17357     17361
     17357     17359     17371     17357     17361     17370     17378     17376     17388
     17378     17376     17389     17378     17376     17390     17388     17376     17389
     17388     17376     17390     17389     17376     17390     17376     17378     17380
     17376     17378     17391     17376     17378     17392     17380     17378     17391
     17380     17378     17392     17391     17378     17392     17378     17380     17382
     17378     17380     17393     17378     17380     17394     17382     17380     17393
     17382     17380     17394     17393     17380     17394     17380     17382     17384
     17380     17382     17386     17384     17382     17386     17382     17384     17396
     17382     17386     17395     17403     17401     17413     17403     17401     17414
     17403     17401     17415     17413     17401     17414     17413     17401     17415
     17414     17401     17415     17401     17403     17405     17401     17403     17416
     17401     17403     17417     17405     17403     17416     17405     17403     17417
     17416     17403     17417     17403     17405     17407     17403     17405     17418
     17403     17405     17419     17407     17405     17418     17407     17405     17419
     17418     17405     17419     17405     17407     17409     17405     17407     17411
     17409     17407     17411     17407     17409     17421     17407     17411     17420
     17428     17426     17438     17428     17426     17439     17428     17426     17440
     17438     17426     17439     17438     17426     17440     17439     17426     17440
     17426     17428     17430     17426     17428     17441     17426     17428     17442
     17430     17428     17441     17430     17428     17442     17441     17428     17442
     17428     17430     17432     17428     17430     17443     17428     17430     17444
     17432     17430     17443     17432     17430     17444     17443     17430     17444
     17430     17432     17434     17430     17432     17436     17434     17432     17436
     17432     17434     17446     17432     17436     17445     17453     17451     17463
     17453     17451     17464     17453     17451     17465     17463     17451     17464
     17463     17451     17465     17464     17451     17465     17451     17453     17455
     17451     17453     17466     17451     17453     17467     17455     17453     17466
     17455     17453     17467     17466     17453     17467     17453     17455     17457
     17453     17455     17468     17453     17455     17469     17457     17455     17468
     17457     17455     17469     17468     17455     17469     17455     17457     17459
     17455     17457     17461     17459     17457     17461     17457     17459     17471
     17457     17461     17470     17478     17476     17488     17478     17476     17489
     17478     17476     17490     17488     17476     17489     17488     17476     17490
     17489     17476     17490     17476     17478     17480     17476     17478     17491
     17476     17478     17492     17480     17478     17491     17480     17478     17492
     17491     17478     17492     17478     17480     17482     17478     17480     17493
     17478     17480     17494     17482     17480     17493     17482     17480     17494
     17493     17480     17494     17480     17482     17484     17480     17482     17486
     17484     17482     17486     17482     17484     17496     17482     17486     17495
     17503     17501     17513     17503     17501     17514     17503     17501     17515
     17513     17501     17514     17513     17501     17515     17514     17501     17515
     17501     17503     17505     17501     17503     17516     17501     17503     17517
     17505     17503     17516     17505     17503     17517     17516     17503     17517
     17503     17505     17507     17503     17505     17518     17503     17505     17519
     17507     17505     17518     17507     17505     17519     17518     17505     17519
     17505     17507     17509     17505     17507     17511     17509     17507     17511
     17507     17509     17521     17507     17511     17520     17528     17526     17538
     17528     17526     17539     17528     17526     17540     17538     17526     17539
     17538     17526     17540     17539     17526     17540     17526     17528     17530
     17526     17528     17541     17526     17528     17542     17530     17528     17541
     17530     17528     17542     17541     17528     17542     17528     17530     17532
     17528     17530     17543     17528     17530     17544     17532     17530     17543
     17532     17530     17544     17543     17530     17544     17530     17532     17534
     17530     17532     17536     17534     17532     17536     17532     17534     17546
     17532     17536     17545     17553     17551     17563     17553     17551     17564
     17553     17551     17565     17563     17551     17564     17563     17551     17565
     17564     17551     17565     17551     17553     17555     17551     17553     17566
     17551     17553     17567     17555     17553     17566     17555     17553     17567
     17566     17553     17567     17553     17555     17557     17553     17555     17568
     17553     17555     17569     17557     17555     17568     17557     17555     17569
     17568     17555     17569     17555     17557     17559     17555     17557     17561
     17559     17557     17561     17557     17559     17571     17557     17561     17570
     17578     17576     17588     17578     17576     17589     17578     17576     17590
     17588     17576     17589     17588     17576     17590     17589     17576     17590
     17576     17578     17580     17576     17578     17591     17576     17578     17592
     17580     17578     17591     17580     17578     17592     17591     17578     17592
     17578     17580     17582     17578     17580     17593     17578     17580     17594
     17582     17580     17593     17582     17580     17594     17593     17580     17594
     17580     17582     17584     17580     17582     17586     17584     17582     17586
     17582     17584     17596     17582     17586     17595     17603     17601     17613
     17603     17601     17614     17603     17601     17615     17613     17601     17614
     17613     17601     17615     17614     17601     17615     17601     17603     17605
     17601     17603     17616     17601     17603     17617     17605     17603     17616
     17605     17603     17617     17616     17603     17617     17603     17605     17607
     17603     17605     17618     17603     17605     17619     17607     17605     17618
     17607     17605     17619     17618     17605     17619     17605     17607     17609
     17605     17607     17611     17609     17607     17611     17607     17609     17621
     17607     17611     17620     17628     17626     17638     17628     17626     17639
     17628     17626     17640     17638     17626     17639     17638     17626     17640
     17639     17626     17640     17626     17628     17630     17626     17628     17641
     17626     17628     17642     17630     17628     17641     17630     17628     17642
     17641     17628     17642     17628     17630     17632     17628     17630     17643
     17628     17630     17644     17632     17630     17643     17632     17630     17644
     17643     17630     17644     17630     17632     17634     17630     17632     17636
     17634     17632     17636     17632     17634     17646     17632     17636     17645
     17653     17651     17663     17653     17651     17664     17653     17651     17665
     17663     17651     17664     17663     17651     17665     17664     17651     17665
     17651     17653     17655     17651     17653     17666     17651     17653     17667
     17655     17653     17666     17655     17653     17667     17666     17653     17667
     17653     17655     17657     17653     17655     17668     17653     17655     17669
     17657     17655     17668     17657     17655     17669     17668     17655     17669
     17655     17657     17659     17655     17657     17661     17659     17657     17661
     17657     17659     17671     17657     17661     17670     17678     17676     17688
     17678     17676     17689     17678     17676     17690     17688     17676     17689
     17688     17676     17690     17689     17676     17690     17676     17678     17680
     17676     17678     17691     17676     17678     17692     17680     17678     17691
     17680     17678     17692     17691     17678     17692     17678     17680     17682
     17678     17680     17693     17678     17680     17694     17682     17680     17693
     17682     17680     17694     17693     17680     17694     17680     17682     17684
     17680     17682     17686     17684     17682     17686     17682     17684     17696
     17682     17686     17695     17703     17701     17713     17703     17701     17714
     17703     17701     17715     17713     17701     17714     17713     17701     17715
     17714     17701     17715     17701     17703     17705     17701     17703     17716
     17701     17703     17717     17705     17703     17716     17705     17703     17717
     17716     17703     17717     17703     17705     17707     17703     17705     17718
     17703     17705     17719     17707     17705     17718     17707     17705     17719
     17718     17705     17719     17705     17707     17709     17705     17707     17711
     17709     17707     17711     17707     17709     17721     17707     17711     17720
     17728     17726     17738     17728     17726     17739     17728     17726     17740
     17738     17726     17739     17738     17726     17740     17739     17726     17740
     17726     17728     17730     17726     17728     17741     17726     17728     17742
     17730     17728     17741     17730     17728     17742     17741     17728     17742
     17728     17730     17732     17728     17730     17743     17728     17730     17744
     17732     17730     17743     17732     17730     17744     17743     17730     17744
     17730     17732     17734     17730     17732     17736     17734     17732     17736
     17732     17734     17746     17732     17736     17745     17753     17751     17763
     17753     17751     17764     17753     17751     17765     17763     17751     17764
     17763     17751     17765     17764     17751     17765     17751     17753     17755
     17751     17753     17766     17751     17753     17767     17755     17753     17766
     17755     17753     17767     17766     17753     17767     17753     17755     17757
     17753     17755     17768     17753     17755     17769     17757     17755     17768
     17757     17755     17769     17768     17755     17769     17755     17757     17759
     17755     17757     17761     17759     17757     17761     17757     17759     17771
     17757     17761     17770     17778     17776     17788     17778     17776     17789
     17778     17776     17790     17788     17776     17789     17788     17776     17790
     17789     17776     17790     17776     17778     17780     17776     17778     17791
     17776     17778     17792     17780     17778     17791     17780     17778     17792
     17791     17778     17792     17778     17780     17782     17778     17780     17793
     17778     17780     17794     17782     17780     17793     17782     17780     17794
     17793     17780     17794     17780     17782     17784     17780     17782     17786
     17784     17782     17786     17782     17784     17796     17782     17786     17795
     17803     17801     17813     17803     17801     17814     17803     17801     17815
     17813     17801     17814     17813     17801     17815     17814     17801     17815
     17801     17803     17805     17801     17803     17816     17801     17803     17817
     17805     17803     17816     17805     17803     17817     17816     17803     17817
     17803     17805     17807     17803     17805     17818     17803     17805     17819
     17807     17805     17818     17807     17805     17819     17818     17805     17819
     17805     17807     17809     17805     17807     17811     17809     17807     17811
     17807     17809     17821     17807     17811     17820     17828     17826     17838
     17828     17826     17839     17828     17826     17840     17838     17826     17839
     17838     17826     17840     17839     17826     17840     17826     17828     17830
     17826     17828     17841     17826     17828     17842     17830     17828     17841
     17830     17828     17842     17841     17828     17842     17828     17830     17832
     17828     17830     17843     17828     17830     17844     17832     17830     17843
     17832     17830     17844     17843     17830     17844     17830     17832     17834
     17830     17832     17836     17834     17832     17836     17832     17834     17846
     17832     17836     17845     17853     17851     17863     17853     17851     17864
     17853     17851     17865     17863     17851     17864     17863     17851     17865
     17864     17851     17865     17851     17853     17855     17851     17853     17866
     17851     17853     17867     17855     17853     17866     17855     17853     17867
     17866     17853     17867     17853     17855     17857     17853     17855     17868
     17853     17855     17869     17857     17855     17868     17857     17855     17869
     17868     17855     17869     17855     17857     17859     17855     17857     17861
     17859     17857     17861     17857     17859     17871     17857     17861     17870
     17878     17876     17888     17878     17876     17889     17878     17876     17890
     17888     17876     17889     17888     17876     17890     17889     17876     17890
     17876     17878     17880     17876     17878     17891     17876     17878     17892
     17880     17878     17891     17880     17878     17892     17891     17878     17892
     17878     17880     17882     17878     17880     17893     17878     17880     17894
     17882     17880     17893     17882     17880     17894     17893     17880     17894
     17880     17882     17884     17880     17882     17886     17884     17882     17886
     17882     17884     17896     17882     17886     17895     17903     17901     17913
     17903     17901     17914     17903     17901     17915     17913     17901     17914
     17913     17901     17915     17914     17901     17915     17901     17903     17905
     17901     17903     17916     17901     17903     17917     17905     17903     17916
     17905     17903     17917     17916     17903     17917     17903     17905     17907
     17903     17905     17918     17903     17905     17919     17907     17905     17918
     17907     17905     17919     17918     17905     17919     17905     17907     17909
     17905     17907     17911     17909     17907     17911     17907     17909     17921
     17907     17911     17920     17928     17926     17938     17928     17926     17939
     17928     17926     17940     17938     17926     17939     17938     17926     17940
     17939     17926     17940     17926     17928     17930     17926     17928     17941
     17926     17928     17942     17930     17928     17941     17930     17928     17942
     17941     17928     17942     17928     17930     17932     17928     17930     17943
     17928     17930     17944     17932     17930     17943     17932     17930     17944
     17943     17930     17944     17930     17932     17934     17930     17932     17936
     17934     17932     17936     17932     17934     17946     17932     17936     17945
     17953     17951     17963     17953     17951     17964     17953     17951     17965
     17963     17951     17964     17963     17951     17965     17964     17951     17965
     17951     17953     17955     17951     17953     17966     17951     17953     17967
     17955     17953     17966     17955     17953     17967     17966     17953     17967
     17953     17955     17957     17953     17955     17968     17953     17955     17969
     17957     17955     17968     17957     17955     17969     17968     17955     17969
     17955     17957     17959     17955     17957     17961     17959     17957     17961
     17957     17959     17971     17957     17961     17970     17978     17976     17988
     17978     17976     17989     17978     17976     17990     17988     17976     17989
     17988     17976     17990     17989     17976     17990     17976     17978     17980
     17976     17978     17991     17976     17978     17992     17980     17978     17991
     17980     17978     17992     17991     17978     17992     17978     17980     17982
     17978     17980     17993     17978     17980     17994     17982     17980     17993
     17982     17980     17994     17993     17980     17994     17980     17982     17984
     17980     17982     17986     17984     17982     17986     17982     17984     17996
     17982     17986     17995     18003     18001     18013     18003     18001     18014
     18003     18001     18015     18013     18001     18014     18013     18001     18015
     18014     18001     18015     18001     18003     18005     18001     18003     18016
     18001     18003     18017     18005     18003     18016     18005     18003     18017
     18016     18003     18017     18003     18005     18007     18003     18005     18018
     18003     18005     18019     18007     18005     18018     18007     18005     18019
     18018     18005     18019     18005     18007     18009     18005     18007     18011
     18009     18007     18011     18007     18009     18021     18007     18011     18020
     18028     18026     18038     18028     18026     18039     18028     18026     18040
     18038     18026     18039     18038     18026     18040     18039     18026     18040
     18026     18028     18030     18026     18028     18041     18026     18028     18042
     18030     18028     18041     18030     18028     18042     18041     18028     18042
     18028     18030     18032     18028     18030     18043     18028     18030     18044
     18032     18030     18043     18032     18030     18044     18043     18030     18044
     18030     18032     18034     18030     18032     18036     18034     18032     18036
     18032     18034     18046     18032     18036     18045     18053     18051     18063
     18053     18051     18064     18053     18051     18065     18063     18051     18064
     18063     18051     18065     18064     18051     18065     18051     18053     18055
     18051     18053     18066     18051     18053     18067     18055     18053     18066
     18055     18053     18067     18066     18053     18067     18053     18055     18057
     18053     18055     18068     18053     18055     18069     18057     18055     18068
     18057     18055     18069     18068     18055     18069     18055     18057     18059
     18055     18057     18061     18059     18057     18061     18057     18059     18071
     18057     18061     18070     18078     18076     18088     18078     18076     18089
     18078     18076     18090     18088     18076     18089     18088     18076     18090
     18089     18076     18090     18076     18078     18080     18076     18078     18091
     18076     18078     18092     18080     18078     18091     18080     18078     18092
     18091     18078     18092     18078     18080     18082     18078     18080     18093
     18078     18080     18094     18082     18080     18093     18082     18080     18094
     18093     18080     18094     18080     18082     18084     18080     18082     18086
     18084     18082     18086     18082     18084     18096     18082     18086     18095
     18103     18101     18113     18103     18101     18114     18103     18101     18115
     18113     18101     18114     18113     18101     18115     18114     18101     18115
     18101     18103     18105     18101     18103     18116     18101     18103     18117
     18105     18103     18116     18105     18103     18117     18116     18103     18117
     18103     18105     18107     18103     18105     18118     18103     18105     18119
     18107     18105     18118     18107     18105     18119     18118     18105     18119
     18105     18107     18109     18105     18107     18111     18109     18107     18111
     18107     18109     18121     18107     18111     18120     18128     18126     18138
     18128     18126     18139     18128     18126     18140     18138     18126     18139
     18138     18126     18140     18139     18126     18140     18126     18128     18130
     18126     18128     18141     18126     18128     18142     18130     18128     18141
     18130     18128     18142     18141     18128     18142     18128     18130     18132
     18128     18130     18143     18128     18130     18144     18132     18130     18143
     18132     18130     18144     18143     18130     18144     18130     18132     18134
     18130     18132     18136     18134     18132     18136     18132     18134     18146
     18132     18136     18145     18153     18151     18163     18153     18151     18164
     18153     18151     18165     18163     18151     18164     18163     18151     18165
     18164     18151     18165     18151     18153     18155     18151     18153     18166
     18151     18153     18167     18155     18153     18166     18155     18153     18167
     18166     18153     18167     18153     18155     18157     18153     18155     18168
     18153     18155     18169     18157     18155     18168     18157     18155     18169
     18168     18155     18169     18155     18157     18159     18155     18157     18161
     18159     18157     18161     18157     18159     18171     18157     18161     18170
     18178     18176     18188     18178     18176     18189     18178     18176     18190
     18188     18176     18189     18188     18176     18190     18189     18176     18190
     18176     18178     18180     18176     18178     18191     18176     18178     18192
     18180     18178     18191     18180     18178     18192     18191     18178     18192
     18178     18180     18182     18178     18180     18193     18178     18180     18194
     18182     18180     18193     18182     18180     18194     18193     18180     18194
     18180     18182     18184     18180     18182     18186     18184     18182     18186
     18182     18184     18196     18182     18186     18195     18203     18201     18213
     18203     18201     18214     18203     18201     18215     18213     18201     18214
     18213     18201     18215     18214     18201     18215     18201     18203     18205
     18201     18203     18216     18201     18203     18217     18205     18203     18216
     18205     18203     18217     18216     18203     18217     18203     18205     18207
     18203     18205     18218     18203     18205     18219     18207     18205     18218
     18207     18205     18219     18218     18205     18219     18205     18207     18209
     18205     18207     18211     18209     18207     18211     18207     18209     18221
     18207     18211     18220     18228     18226     18238     18228     18226     18239
     18228     18226     18240     18238     18226     18239     18238     18226     18240
     18239     18226     18240     18226     18228     18230     18226     18228     18241
     18226     18228     18242     18230     18228     18241     18230     18228     18242
     18241     18228     18242     18228     18230     18232     18228     18230     18243
     18228     18230     18244     18232     18230     18243     18232     18230     18244
     18243     18230     18244     18230     18232     18234     18230     18232     18236
     18234     18232     18236     18232     18234     18246     18232     18236     18245
     18253     18251     18263     18253     18251     18264     18253     18251     18265
     18263     18251     18264     18263     18251     18265     18264     18251     18265
     18251     18253     18255     18251     18253     18266     18251     18253     18267
     18255     18253     18266     18255     18253     18267     18266     18253     18267
     18253     18255     18257     18253     18255     18268     18253     18255     18269
     18257     18255     18268     18257     18255     18269     18268     18255     18269
     18255     18257     18259     18255     18257     18261     18259     18257     18261
     18257     18259     18271     18257     18261     18270     18278     18276     18288
     18278     18276     18289     18278     18276     18290     18288     18276     18289
     18288     18276     18290     18289     18276     18290     18276     18278     18280
     18276     18278     18291     18276     18278     18292     18280     18278     18291
     18280     18278     18292     18291     18278     18292     18278     18280     18282
     18278     18280     18293     18278     18280     18294     18282     18280     18293
     18282     18280     18294     18293     18280     18294     18280     18282     18284
     18280     18282     18286     18284     18282     18286     18282     18284     18296
     18282     18286     18295     18303     18301     18313     18303     18301     18314
     18303     18301     18315     18313     18301     18314     18313     18301     18315
     18314     18301     18315     18301     18303     18305     18301     18303     18316
     18301     18303     18317     18305     18303     18316     18305     18303     18317
     18316     18303     18317     18303     18305     18307     18303     18305     18318
     18303     18305     18319     18307     18305     18318     18307     18305     18319
     18318     18305     18319     18305     18307     18309     18305     18307     18311
     18309     18307     18311     18307     18309     18321     18307     18311     18320
     18328     18326     18338     18328     18326     18339     18328     18326     18340
     18338     18326     18339     18338     18326     18340     18339     18326     18340
     18326     18328     18330     18326     18328     18341     18326     18328     18342
     18330     18328     18341     18330     18328     18342     18341     18328     18342
     18328     18330     18332     18328     18330     18343     18328     18330     18344
     18332     18330     18343     18332     18330     18344     18343     18330     18344
     18330     18332     18334     18330     18332     18336     18334     18332     18336
     18332     18334     18346     18332     18336     18345     18353     18351     18363
     18353     18351     18364     18353     18351     18365     18363     18351     18364
     18363     18351     18365     18364     18351     18365     18351     18353     18355
     18351     18353     18366     18351     18353     18367     18355     18353     18366
     18355     18353     18367     18366     18353     18367     18353     18355     18357
     18353     18355     18368     18353     18355     18369     18357     18355     18368
     18357     18355     18369     18368     18355     18369     18355     18357     18359
     18355     18357     18361     18359     18357     18361     18357     18359     18371
     18357     18361     18370     18378     18376     18388     18378     18376     18389
     18378     18376     18390     18388     18376     18389     18388     18376     18390
     18389     18376     18390     18376     18378     18380     18376     18378     18391
     18376     18378     18392     18380     18378     18391     18380     18378     18392
     18391     18378     18392     18378     18380     18382     18378     18380     18393
     18378     18380     18394     18382     18380     18393     18382     18380     18394
     18393     18380     18394     18380     18382     18384     18380     18382     18386
     18384     18382     18386     18382     18384     18396     18382     18386     18395
     18403     18401     18413     18403     18401     18414     18403     18401     18415
     18413     18401     18414     18413     18401     18415     18414     18401     18415
     18401     18403     18405     18401     18403     18416     18401     18403     18417
     18405     18403     18416     18405     18403     18417     18416     18403     18417
     18403     18405     18407     18403     18405     18418     18403     18405     18419
     18407     18405     18418     18407     18405     18419     18418     18405     18419
     18405     18407     18409     18405     18407     18411     18409     18407     18411
     18407     18409     18421     18407     18411     18420     18428     18426     18438
     18428     18426     18439     18428     18426     18440     18438     18426     18439
     18438     18426     18440     18439     18426     18440     18426     18428     18430
     18426     18428     18441     18426     18428     18442     18430     18428     18441
     18430     18428     18442     18441     18428     18442     18428     18430     18432
     18428     18430     18443     18428     18430     18444     18432     18430     18443
     18432     18430     18444     18443     18430     18444     18430     18432     18434
     18430     18432     18436     18434     18432     18436     18432     18434     18446
     18432     18436     18445     18453     18451     18463     18453     18451     18464
     18453     18451     18465     18463     18451     18464     18463     18451     18465
     18464     18451     18465     18451     18453     18455     18451     18453     18466
     18451     18453     18467     18455     18453     18466     18455     18453     18467
     18466     18453     18467     18453     18455     18457     18453     18455     18468
     18453     18455     18469     18457     18455     18468     18457     18455     18469
     18468     18455     18469     18455     18457     18459     18455     18457     18461
     18459     18457     18461     18457     18459     18471     18457     18461     18470
     18478     18476     18488     18478     18476     18489     18478     18476     18490
     18488     18476     18489     18488     18476     18490     18489     18476     18490
     18476     18478     18480     18476     18478     18491     18476     18478     18492
     18480     18478     18491     18480     18478     18492     18491     18478     18492
     18478     18480     18482     18478     18480     18493     18478     18480     18494
     18482     18480     18493     18482     18480     18494     18493     18480     18494
     18480     18482     18484     18480     18482     18486     18484     18482     18486
     18482     18484     18496     18482     18486     18495     18503     18501     18513
     18503     18501     18514     18503     18501     18515     18513     18501     18514
     18513     18501     18515     18514     18501     18515     18501     18503     18505
     18501     18503     18516     18501     18503     18517     18505     18503     18516
     18505     18503     18517     18516     18503     18517     18503     18505     18507
     18503     18505     18518     18503     18505     18519     18507     18505     18518
     18507     18505     18519     18518     18505     18519     18505     18507     18509
     18505     18507     18511     18509     18507     18511     18507     18509     18521
     18507     18511     18520     18528     18526     18538     18528     18526     18539
     18528     18526     18540     18538     18526     18539     18538     18526     18540
     18539     18526     18540     18526     18528     18530     18526     18528     18541
     18526     18528     18542     18530     18528     18541     18530     18528     18542
     18541     18528     18542     18528     18530     18532     18528     18530     18543
     18528     18530     18544     18532     18530     18543     18532     18530     18544
     18543     18530     18544     18530     18532     18534     18530     18532     18536
     18534     18532     18536     18532     18534     18546     18532     18536     18545
     18553     18551     18563     18553     18551     18564     18553     18551     18565
     18563     18551     18564     18563     18551     18565     18564     18551     18565
     18551     18553     18555     18551     18553     18566     18551     18553     18567
     18555     18553     18566     18555     18553     18567     18566     18553     18567
     18553     18555     18557     18553     18555     18568     18553     18555     18569
     18557     18555     18568     18557     18555     18569     18568     18555     18569
     18555     18557     18559     18555     18557     18561     18559     18557     18561
     18557     18559     18571     18557     18561     18570     18578     18576     18588
     18578     18576     18589     18578     18576     18590     18588     18576     18589
     18588     18576     18590     18589     18576     18590     18576     18578     18580
     18576     18578     18591     18576     18578     18592     18580     18578     18591
     18580     18578     18592     18591     18578     18592     18578     18580     18582
     18578     18580     18593     18578     18580     18594     18582     18580     18593
     18582     18580     18594     18593     18580     18594     18580     18582     18584
     18580     18582     18586     18584     18582     18586     18582     18584     18596
     18582     18586     18595     18603     18601     18613     18603     18601     18614
     18603     18601     18615     18613     18601     18614     18613     18601     18615
     18614     18601     18615     18601     18603     18605     18601     18603     18616
     18601     18603     18617     18605     18603     18616     18605     18603     18617
     18616     18603     18617     18603     18605     18607     18603     18605     18618
     18603     18605     18619     18607     18605     18618     18607     18605     18619
     18618     18605     18619     18605     18607     18609     18605     18607     18611
     18609     18607     18611     18607     18609     18621     18607     18611     18620
     18628     18626     18638     18628     18626     18639     18628     18626     18640
     18638     18626     18639     18638     18626     18640     18639     18626     18640
     18626     18628     18630     18626     18628     18641     18626     18628     18642
     18630     18628     18641     18630     18628     18642     18641     18628     18642
     18628     18630     18632     18628     18630     18643     18628     18630     18644
     18632     18630     18643     18632     18630     18644     18643     18630     18644
     18630     18632     18634     18630     18632     18636     18634     18632     18636
     18632     18634     18646     18632     18636     18645     18653     18651     18663
     18653     18651     18664     18653     18651     18665     18663     18651     18664
     18663     18651     18665     18664     18651     18665     18651     18653     18655
     18651     18653     18666     18651     18653     18667     18655     18653     18666
     18655     18653     18667     18666     18653     18667     18653     18655     18657
     18653     18655     18668     18653     18655     18669     18657     18655     18668
     18657     18655     18669     18668     18655     18669     18655     18657     18659
     18655     18657     18661     18659     18657     18661     18657     18659     18671
     18657     18661     18670     18678     18676     18688     18678     18676     18689
     18678     18676     18690     18688     18676     18689     18688     18676     18690
     18689     18676     18690     18676     18678     18680     18676     18678     18691
     18676     18678     18692     18680     18678     18691     18680     18678     18692
     18691     18678     18692     18678     18680     18682     18678     18680     18693
     18678     18680     18694     18682     18680     18693     18682     18680     18694
     18693     18680     18694     18680     18682     18684     18680     18682     18686
     18684     18682     18686     18682     18684     18696     18682     18686     18695
     18703     18701     18713     18703     18701     18714     18703     18701     18715
     18713     18701     18714     18713     18701     18715     18714     18701     18715
     18701     18703     18705     18701     18703     18716     18701     18703     18717
     18705     18703     18716     18705     18703     18717     18716     18703     18717
     18703     18705     18707     18703     18705     18718     18703     18705     18719
     18707     18705     18718     18707     18705     18719     18718     18705     18719
     18705     18707     18709     18705     18707     18711     18709     18707     18711
     18707     18709     18721     18707     18711     18720     18728     18726     18738
     18728     18726     18739     18728     18726     18740     18738     18726     18739
     18738     18726     18740     18739     18726     18740     18726     18728     18730
     18726     18728     18741     18726     18728     18742     18730     18728     18741
     18730     18728     18742     18741     18728     18742     18728     18730     18732
     18728     18730     18743     18728     18730     18744     18732     18730     18743
     18732     18730     18744     18743     18730     18744     18730     18732     18734
     18730     18732     18736     18734     18732     18736     18732     18734     18746
     18732     18736     18745     18753     18751     18763     18753     18751     18764
     18753     18751     18765     18763     18751     18764     18763     18751     18765
     18764     18751     18765     18751     18753     18755     18751     18753     18766
     18751     18753     18767     18755     18753     18766     18755     18753     18767
     18766     18753     18767     18753     18755     18757     18753     18755     18768
     18753     18755     18769     18757     18755     18768     18757     18755     18769
     18768     18755     18769     18755     18757     18759     18755     18757     18761
     18759     18757     18761     18757     18759     18771     18757     18761     18770
     18778     18776     18788     18778     18776     18789     18778     18776     18790
     18788     18776     18789     18788     18776     18790     18789     18776     18790
     18776     18778     18780     18776     18778     18791     18776     18778     18792
     18780     18778     18791     18780     18778     18792     18791     18778     18792
     18778     18780     18782     18778     18780     18793     18778     18780     18794
     18782     18780     18793     18782     18780     18794     18793     18780     18794
     18780     18782     18784     18780     18782     18786     18784     18782     18786
     18782     18784     18796     18782     18786     18795     18803     18801     18813
     18803     18801     18814     18803     18801     18815     18813     18801     18814
     18813     18801     18815     18814     18801     18815     18801     18803     18805
     18801     18803     18816     18801     18803     18817     18805     18803     18816
     18805     18803     18817     18816     18803     18817     18803     18805     18807
     18803     18805     18818     18803     18805     18819     18807     18805     18818
     18807     18805     18819     18818     18805     18819     18805     18807     18809
     18805     18807     18811     18809     18807     18811     18807     18809     18821
     18807     18811     18820     18828     18826     18838     18828     18826     18839
     18828     18826     18840     18838     18826     18839     18838     18826     18840
     18839     18826     18840     18826     18828     18830     18826     18828     18841
     18826     18828     18842     18830     18828     18841     18830     18828     18842
     18841     18828     18842     18828     18830     18832     18828     18830     18843
     18828     18830     18844     18832     18830     18843     18832     18830     18844
     18843     18830     18844     18830     18832     18834     18830     18832     18836
     18834     18832     18836     18832     18834     18846     18832     18836     18845
     18853     18851     18863     18853     18851     18864     18853     18851     18865
     18863     18851     18864     18863     18851     18865     18864     18851     18865
     18851     18853     18855     18851     18853     18866     18851     18853     18867
     18855     18853     18866     18855     18853     18867     18866     18853     18867
     18853     18855     18857     18853     18855     18868     18853     18855     18869
     18857     18855     18868     18857     18855     18869     18868     18855     18869
     18855     18857     18859     18855     18857     18861     18859     18857     18861
     18857     18859     18871     18857     18861     18870     18878     18876     18888
     18878     18876     18889     18878     18876     18890     18888     18876     18889
     18888     18876     18890     18889     18876     18890     18876     18878     18880
     18876     18878     18891     18876     18878     18892     18880     18878     18891
     18880     18878     18892     18891     18878     18892     18878     18880     18882
     18878     18880     18893     18878     18880     18894     18882     18880     18893
     18882     18880     18894     18893     18880     18894     18880     18882     18884
     18880     18882     18886     18884     18882     18886     18882     18884     18896
     18882     18886     18895     18903     18901     18913     18903     18901     18914
     18903     18901     18915     18913     18901     18914     18913     18901     18915
     18914     18901     18915     18901     18903     18905     18901     18903     18916
     18901     18903     18917     18905     18903     18916     18905     18903     18917
     18916     18903     18917     18903     18905     18907     18903     18905     18918
     18903     18905     18919     18907     18905     18918     18907     18905     18919
     18918     18905     18919     18905     18907     18909     18905     18907     18911
     18909     18907     18911     18907     18909     18921     18907     18911     18920
     18928     18926     18938     18928     18926     18939     18928     18926     18940
     18938     18926     18939     18938     18926     18940     18939     18926     18940
     18926     18928     18930     18926     18928     18941     18926     18928     18942
     18930     18928     18941     18930     18928     18942     18941     18928     18942
     18928     18930     18932     18928     18930     18943     18928     18930     18944
     18932     18930     18943     18932     18930     18944     18943     18930     18944
     18930     18932     18934     18930     18932     18936     18934     18932     18936
     18932     18934     18946     18932     18936     18945     18953     18951     18963
     18953     18951     18964     18953     18951     18965     18963     18951     18964
     18963     18951     18965     18964     18951     18965     18951     18953     18955
     18951     18953     18966     18951     18953     18967     18955     18953     18966
     18955     18953     18967     18966     18953     18967     18953     18955     18957
     18953     18955     18968     18953     18955     18969     18957     18955     18968
     18957     18955     18969     18968     18955     18969     18955     18957     18959
     18955     18957     18961     18959     18957     18961     18957     18959     18971
     18957     18961     18970     18978     18976     18988     18978     18976     18989
     18978     18976     18990     18988     18976     18989     18988     18976     18990
     18989     18976     18990     18976     18978     18980     18976     18978     18991
     18976     18978     18992     18980     18978     18991     18980     18978     18992
     18991     18978     18992     18978     18980     18982     18978     18980     18993
     18978     18980     18994     18982     18980     18993     18982     18980     18994
     18993     18980     18994     18980     18982     18984     18980     18982     18986
     18984     18982     18986     18982     18984     18996     18982     18986     18995
     19003     19001     19013     19003     19001     19014     19003     19001     19015
     19013     19001     19014     19013     19001     19015     19014     19001     19015
     19001     19003     19005     19001     19003     19016     19001     19003     19017
     19005     19003     19016     19005     19003     19017     19016     19003     19017
     19003     19005     19007     19003     19005     19018     19003     19005     19019
     19007     19005     19018     19007     19005     19019     19018     19005     19019
     19005     19007     19009     19005     19007     19011     19009     19007     19011
     19007     19009     19021     19007     19011     19020     19028     19026     19038
     19028     19026     19039     19028     19026     19040     19038     19026     19039
     19038     19026     19040     19039     19026     19040     19026     19028     19030
     19026     19028     19041     19026     19028     19042     19030     19028     19041
     19030     19028     19042     19041     19028     19042     19028     19030     19032
     19028     19030     19043     19028     19030     19044     19032     19030     19043
     19032     19030     19044     19043     19030     19044     19030     19032     19034
     19030     19032     19036     19034     19032     19036     19032     19034     19046
     19032     19036     19045     19053     19051     19063     19053     19051     19064
     19053     19051     19065     19063     19051     19064     19063     19051     19065
     19064     19051     19065     19051     19053     19055     19051     19053     19066
     19051     19053     19067     19055     19053     19066     19055     19053     19067
     19066     19053     19067     19053     19055     19057     19053     19055     19068
     19053     19055     19069     19057     19055     19068     19057     19055     19069
     19068     19055     19069     19055     19057     19059     19055     19057     19061
     19059     19057     19061     19057     19059     19071     19057     19061     19070
     19078     19076     19088     19078     19076     19089     19078     19076     19090
     19088     19076     19089     19088     19076     19090     19089     19076     19090
     19076     19078     19080     19076     19078     19091     19076     19078     19092
     19080     19078     19091     19080     19078     19092     19091     19078     19092
     19078     19080     19082     19078     19080     19093     19078     19080     19094
     19082     19080     19093     19082     19080     19094     19093     19080     19094
     19080     19082     19084     19080     19082     19086     19084     19082     19086
     19082     19084     19096     19082     19086     19095     19103     19101     19113
     19103     19101     19114     19103     19101     19115     19113     19101     19114
     19113     19101     19115     19114     19101     19115     19101     19103     19105
     19101     19103     19116     19101     19103     19117     19105     19103     19116
     19105     19103     19117     19116     19103     19117     19103     19105     19107
     19103     19105     19118     19103     19105     19119     19107     19105     19118
     19107     19105     19119     19118     19105     19119     19105     19107     19109
     19105     19107     19111     19109     19107     19111     19107     19109     19121
     19107     19111     19120     19128     19126     19138     19128     19126     19139
     19128     19126     19140     19138     19126     19139     19138     19126     19140
     19139     19126     19140     19126     19128     19130     19126     19128     19141
     19126     19128     19142     19130     19128     19141     19130     19128     19142
     19141     19128     19142     19128     19130     19132     19128     19130     19143
     19128     19130     19144     19132     19130     19143     19132     19130     19144
     19143     19130     19144     19130     19132     19134     19130     19132     19136
     19134     19132     19136     19132     19134     19146     19132     19136     19145
     19153     19151     19163     19153     19151     19164     19153     19151     19165
     19163     19151     19164     19163     19151     19165     19164     19151     19165
     19151     19153     19155     19151     19153     19166     19151     19153     19167
     19155     19153     19166     19155     19153     19167     19166     19153     19167
     19153     19155     19157     19153     19155     19168     19153     19155     19169
     19157     19155     19168     19157     19155     19169     19168     19155     19169
     19155     19157     19159     19155     19157     19161     19159     19157     19161
     19157     19159     19171     19157     19161     19170     19178     19176     19188
     19178     19176     19189     19178     19176     19190     19188     19176     19189
     19188     19176     19190     19189     19176     19190     19176     19178     19180
     19176     19178     19191     19176     19178     19192     19180     19178     19191
     19180     19178     19192     19191     19178     19192     19178     19180     19182
     19178     19180     19193     19178     19180     19194     19182     19180     19193
     19182     19180     19194     19193     19180     19194     19180     19182     19184
     19180     19182     19186     19184     19182     19186     19182     19184     19196
     19182     19186     19195     19203     19201     19213     19203     19201     19214
     19203     19201     19215     19213     19201     19214     19213     19201     19215
     19214     19201     19215     19201     19203     19205     19201     19203     19216
     19201     19203     19217     19205     19203     19216     19205     19203     19217
     19216     19203     19217     19203     19205     19207     19203     19205     19218
     19203     19205     19219     19207     19205     19218     19207     19205     19219
     19218     19205     19219     19205     19207     19209     19205     19207     19211
     19209     19207     19211     19207     19209     19221     19207     19211     19220
     19228     19226     19238     19228     19226     19239     19228     19226     19240
     19238     19226     19239     19238     19226     19240     19239     19226     19240
     19226     19228     19230     19226     19228     19241     19226     19228     19242
     19230     19228     19241     19230     19228     19242     19241     19228     19242
     19228     19230     19232     19228     19230     19243     19228     19230     19244
     19232     19230     19243     19232     19230     19244     19243     19230     19244
     19230     19232     19234     19230     19232     19236     19234     19232     19236
     19232     19234     19246     19232     19236     19245     19253     19251     19263
     19253     19251     19264     19253     19251     19265     19263     19251     19264
     19263     19251     19265     19264     19251     19265     19251     19253     19255
     19251     19253     19266     19251     19253     19267     19255     19253     19266
     19255     19253     19267     19266     19253     19267     19253     19255     19257
     19253     19255     19268     19253     19255     19269     19257     19255     19268
     19257     19255     19269     19268     19255     19269     19255     19257     19259
     19255     19257     19261     19259     19257     19261     19257     19259     19271
     19257     19261     19270     19278     19276     19288     19278     19276     19289
     19278     19276     19290     19288     19276     19289     19288     19276     19290
     19289     19276     19290     19276     19278     19280     19276     19278     19291
     19276     19278     19292     19280     19278     19291     19280     19278     19292
     19291     19278     19292     19278     19280     19282     19278     19280     19293
     19278     19280     19294     19282     19280     19293     19282     19280     19294
     19293     19280     19294     19280     19282     19284     19280     19282     19286
     19284     19282     19286     19282     19284     19296     19282     19286     19295
     19303     19301     19313     19303     19301     19314     19303     19301     19315
     19313     19301     19314     19313     19301     19315     19314     19301     19315
     19301     19303     19305     19301     19303     19316     19301     19303     19317
     19305     19303     19316     19305     19303     19317     19316     19303     19317
     19303     19305     19307     19303     19305     19318     19303     19305     19319
     19307     19305     19318     19307     19305     19319     19318     19305     19319
     19305     19307     19309     19305     19307     19311     19309     19307     19311
     19307     19309     19321     19307     19311     19320     19328     19326     19338
     19328     19326     19339     19328     19326     19340     19338     19326     19339
     19338     19326     19340     19339     19326     19340     19326     19328     19330
     19326     19328     19341     19326     19328     19342     19330     19328     19341
     19330     19328     19342     19341     19328     19342     19328     19330     19332
     19328     19330     19343     19328     19330     19344     19332     19330     19343
     19332     19330     19344     19343     19330     19344     19330     19332     19334
     19330     19332     19336     19334     19332     19336     19332     19334     19346
     19332     19336     19345     19353     19351     19363     19353     19351     19364
     19353     19351     19365     19363     19351     19364     19363     19351     19365
     19364     19351     19365     19351     19353     19355     19351     19353     19366
     19351     19353     19367     19355     19353     19366     19355     19353     19367
     19366     19353     19367     19353     19355     19357     19353     19355     19368
     19353     19355     19369     19357     19355     19368     19357     19355     19369
     19368     19355     19369     19355     19357     19359     19355     19357     19361
     19359     19357     19361     19357     19359     19371     19357     19361     19370
     19378     19376     19388     19378     19376     19389     19378     19376     19390
     19388     19376     19389     19388     19376     19390     19389     19376     19390
     19376     19378     19380     19376     19378     19391     19376     19378     19392
     19380     19378     19391     19380     19378     19392     19391     19378     19392
     19378     19380     19382     19378     19380     19393     19378     19380     19394
     19382     19380     19393     19382     19380     19394     19393     19380     19394
     19380     19382     19384     19380     19382     19386     19384     19382     19386
     19382     19384     19396     19382     19386     19395     19403     19401     19413
     19403     19401     19414     19403     19401     19415     19413     19401     19414
     19413     19401     19415     19414     19401     19415     19401     19403     19405
     19401     19403     19416     19401     19403     19417     19405     19403     19416
     19405     19403     19417     19416     19403     19417     19403     19405     19407
     19403     19405     19418     19403     19405     19419     19407     19405     19418
     19407     19405     19419     19418     19405     19419     19405     19407     19409
     19405     19407     19411     19409     19407     19411     19407     19409     19421
     19407     19411     19420     19428     19426     19438     19428     19426     19439
     19428     19426     19440     19438     19426     19439     19438     19426     19440
     19439     19426     19440     19426     19428     19430     19426     19428     19441
     19426     19428     19442     19430     19428     19441     19430     19428     19442
     19441     19428     19442     19428     19430     19432     19428     19430     19443
     19428     19430     19444     19432     19430     19443     19432     19430     19444
     19443     19430     19444     19430     19432     19434     19430     19432     19436
     19434     19432     19436     19432     19434     19446     19432     19436     19445
     19453     19451     19463     19453     19451     19464     19453     19451     19465
     19463     19451     19464     19463     19451     19465     19464     19451     19465
     19451     19453     19455     19451     19453     19466     19451     19453     19467
     19455     19453     19466     19455     19453     19467     19466     19453     19467
     19453     19455     19457     19453     19455     19468     19453     19455     19469
     19457     19455     19468     19457     19455     19469     19468     19455     19469
     19455     19457     19459     19455     19457     19461     19459     19457     19461
     19457     19459     19471     19457     19461     19470     19478     19476     19488
     19478     19476     19489     19478     19476     19490     19488     19476     19489
     19488     19476     19490     19489     19476     19490     19476     19478     19480
     19476     19478     19491     19476     19478     19492     19480     19478     19491
     19480     19478     19492     19491     19478     19492     19478     19480     19482
     19478     19480     19493     19478     19480     19494     19482     19480     19493
     19482     19480     19494     19493     19480     19494     19480     19482     19484
     19480     19482     19486     19484     19482     19486     19482     19484     19496
     19482     19486     19495     19503     19501     19513     19503     19501     19514
     19503     19501     19515     19513     19501     19514     19513     19501     19515
     19514     19501     19515     19501     19503     19505     19501     19503     19516
     19501     19503     19517     19505     19503     19516     19505     19503     19517
     19516     19503     19517     19503     19505     19507     19503     19505     19518
     19503     19505     19519     19507     19505     19518     19507     19505     19519
     19518     19505     19519     19505     19507     19509     19505     19507     19511
     19509     19507     19511     19507     19509     19521     19507     19511     19520
     19528     19526     19538     19528     19526     19539     19528     19526     19540
     19538     19526     19539     19538     19526     19540     19539     19526     19540
     19526     19528     19530     19526     19528     19541     19526     19528     19542
     19530     19528     19541     19530     19528     19542     19541     19528     19542
     19528     19530     19532     19528     19530     19543     19528     19530     19544
     19532     19530     19543     19532     19530     19544     19543     19530     19544
     19530     19532     19534     19530     19532     19536     19534     19532     19536
     19532     19534     19546     19532     19536     19545     19553     19551     19563
     19553     19551     19564     19553     19551     19565     19563     19551     19564
     19563     19551     19565     19564     19551     19565     19551     19553     19555
     19551     19553     19566     19551     19553     19567     19555     19553     19566
     19555     19553     19567     19566     19553     19567     19553     19555     19557
     19553     19555     19568     19553     19555     19569     19557     19555     19568
     19557     19555     19569     19568     19555     19569     19555     19557     19559
     19555     19557     19561     19559     19557     19561     19557     19559     19571
     19557     19561     19570     19578     19576     19588     19578     19576     19589
     19578     19576     19590     19588     19576     19589     19588     19576     19590
     19589     19576     19590     19576     19578     19580     19576     19578     19591
     19576     19578     19592     19580     19578     19591     19580     19578     19592
     19591     19578     19592     19578     19580     19582     19578     19580     19593
     19578     19580     19594     19582     19580     19593     19582     19580     19594
     19593     19580     19594     19580     19582     19584     19580     19582     19586
     19584     19582     19586     19582     19584     19596     19582     19586     19595
     19603     19601     19613     19603     19601     19614     19603     19601     19615
     19613     19601     19614     19613     19601     19615     19614     19601     19615
     19601     19603     19605     19601     19603     19616     19601     19603     19617
     19605     19603     19616     19605     19603     19617     19616     19603     19617
     19603     19605     19607     19603     19605     19618     19603     19605     19619
     19607     19605     19618     19607     19605     19619     19618     19605     19619
     19605     19607     19609     19605     19607     19611     19609     19607     19611
     19607     19609     19621     19607     19611     19620     19628     19626     19638
     19628     19626     19639     19628     19626     19640     19638     19626     19639
     19638     19626     19640     19639     19626     19640     19626     19628     19630
     19626     19628     19641     19626     19628     19642     19630     19628     19641
     19630     19628     19642     19641     19628     19642     19628     19630     19632
     19628     19630     19643     19628     19630     19644     19632     19630     19643
     19632     19630     19644     19643     19630     19644     19630     19632     19634
     19630     19632     19636     19634     19632     19636     19632     19634     19646
     19632     19636     19645     19653     19651     19663     19653     19651     19664
     19653     19651     19665     19663     19651     19664     19663     19651     19665
     19664     19651     19665     19651     19653     19655     19651     19653     19666
     19651     19653     19667     19655     19653     19666     19655     19653     19667
     19666     19653     19667     19653     19655     19657     19653     19655     19668
     19653     19655     19669     19657     19655     19668     19657     19655     19669
     19668     19655     19669     19655     19657     19659     19655     19657     19661
     19659     19657     19661     19657     19659     19671     19657     19661     19670
     19678     19676     19688     19678     19676     19689     19678     19676     19690
     19688     19676     19689     19688     19676     19690     19689     19676     19690
     19676     19678     19680     19676     19678     19691     19676     19678     19692
     19680     19678     19691     19680     19678     19692     19691     19678     19692
     19678     19680     19682     19678     19680     19693     19678     19680     19694
     19682     19680     19693     19682     19680     19694     19693     19680     19694
     19680     19682     19684     19680     19682     19686     19684     19682     19686
     19682     19684     19696     19682     19686     19695     19703     19701     19713
     19703     19701     19714     19703     19701     19715     19713     19701     19714
     19713     19701     19715     19714     19701     19715     19701     19703     19705
     19701     19703     19716     19701     19703     19717     19705     19703     19716
     19705     19703     19717     19716     19703     19717     19703     19705     19707
     19703     19705     19718     19703     19705     19719     19707     19705     19718
     19707     19705     19719     19718     19705     19719     19705     19707     19709
     19705     19707     19711     19709     19707     19711     19707     19709     19721
     19707     19711     19720     19728     19726     19738     19728     19726     19739
     19728     19726     19740     19738     19726     19739     19738     19726     19740
     19739     19726     19740     19726     19728     19730     19726     19728     19741
     19726     19728     19742     19730     19728     19741     19730     19728     19742
     19741     19728     19742     19728     19730     19732     19728     19730     19743
     19728     19730     19744     19732     19730     19743     19732     19730     19744
     19743     19730     19744     19730     19732     19734     19730     19732     19736
     19734     19732     19736     19732     19734     19746     19732     19736     19745
     19753     19751     19763     19753     19751     19764     19753     19751     19765
     19763     19751     19764     19763     19751     19765     19764     19751     19765
     19751     19753     19755     19751     19753     19766     19751     19753     19767
     19755     19753     19766     19755     19753     19767     19766     19753     19767
     19753     19755     19757     19753     19755     19768     19753     19755     19769
     19757     19755     19768     19757     19755     19769     19768     19755     19769
     19755     19757     19759     19755     19757     19761     19759     19757     19761
     19757     19759     19771     19757     19761     19770     19778     19776     19788
     19778     19776     19789     19778     19776     19790     19788     19776     19789
     19788     19776     19790     19789     19776     19790     19776     19778     19780
     19776     19778     19791     19776     19778     19792     19780     19778     19791
     19780     19778     19792     19791     19778     19792     19778     19780     19782
     19778     19780     19793     19778     19780     19794     19782     19780     19793
     19782     19780     19794     19793     19780     19794     19780     19782     19784
     19780     19782     19786     19784     19782     19786     19782     19784     19796
     19782     19786     19795     19803     19801     19813     19803     19801     19814
     19803     19801     19815     19813     19801     19814     19813     19801     19815
     19814     19801     19815     19801     19803     19805     19801     19803     19816
     19801     19803     19817     19805     19803     19816     19805     19803     19817
     19816     19803     19817     19803     19805     19807     19803     19805     19818
     19803     19805     19819     19807     19805     19818     19807     19805     19819
     19818     19805     19819     19805     19807     19809     19805     19807     19811
     19809     19807     19811     19807     19809     19821     19807     19811     19820
     19828     19826     19838     19828     19826     19839     19828     19826     19840
     19838     19826     19839     19838     19826     19840     19839     19826     19840
     19826     19828     19830     19826     19828     19841     19826     19828     19842
     19830     19828     19841     19830     19828     19842     19841     19828     19842
     19828     19830     19832     19828     19830     19843     19828     19830     19844
     19832     19830     19843     19832     19830     19844     19843     19830     19844
     19830     19832     19834     19830     19832     19836     19834     19832     19836
     19832     19834     19846     19832     19836     19845     19853     19851     19863
     19853     19851     19864     19853     19851     19865     19863     19851     19864
     19863     19851     19865     19864     19851     19865     19851     19853     19855
     19851     19853     19866     19851     19853     19867     19855     19853     19866
     19855     19853     19867     19866     19853     19867     19853     19855     19857
     19853     19855     19868     19853     19855     19869     19857     19855     19868
     19857     19855     19869     19868     19855     19869     19855     19857     19859
     19855     19857     19861     19859     19857     19861     19857     19859     19871
     19857     19861     19870     19878     19876     19888     19878     19876     19889
     19878     19876     19890     19888     19876     19889     19888     19876     19890
     19889     19876     19890     19876     19878     19880     19876     19878     19891
     19876     19878     19892     19880     19878     19891     19880     19878     19892
     19891     19878     19892     19878     19880     19882     19878     19880     19893
     19878     19880     19894     19882     19880     19893     19882     19880     19894
     19893     19880     19894     19880     19882     19884     19880     19882     19886
     19884     19882     19886     19882     19884     19896     19882     19886     19895
     19903     19901     19913     19903     19901     19914     19903     19901     19915
     19913     19901     19914     19913     19901     19915     19914     19901     19915
     19901     19903     19905     19901     19903     19916     19901     19903     19917
     19905     19903     19916     19905     19903     19917     19916     19903     19917
     19903     19905     19907     19903     19905     19918     19903     19905     19919
     19907     19905     19918     19907     19905     19919     19918     19905     19919
     19905     19907     19909     19905     19907     19911     19909     19907     19911
     19907     19909     19921     19907     19911     19920     19928     19926     19938
     19928     19926     19939     19928     19926     19940     19938     19926     19939
     19938     19926     19940     19939     19926     19940     19926     19928     19930
     19926     19928     19941     19926     19928     19942     19930     19928     19941
     19930     19928     19942     19941     19928     19942     19928     19930     19932
     19928     19930     19943     19928     19930     19944     19932     19930     19943
     19932     19930     19944     19943     19930     19944     19930     19932     19934
     19930     19932     19936     19934     19932     19936     19932     19934     19946
     19932     19936     19945     19953     19951     19963     19953     19951     19964
     19953     19951     19965     19963     19951     19964     19963     19951     19965
     19964     19951     19965     19951     19953     19955     19951     19953     19966
     19951     19953     19967     19955     19953     19966     19955     19953     19967
     19966     19953     19967     19953     19955     19957     19953     19955     19968
     19953     19955     19969     19957     19955     19968     19957     19955     19969
     19968     19955     19969     19955     19957     19959     19955     19957     19961
     19959     19957     19961     19957     19959     19971     19957     19961     19970
     19978     19976     19988     19978     19976     19989     19978     19976     19990
     19988     19976     19989     19988     19976     19990     19989     19976     19990
     19976     19978     19980     19976     19978     19991     19976     19978     19992
     19980     19978     19991     19980     19978     19992     19991     19978     19992
     19978     19980     19982     19978     19980     19993     19978     19980     19994
     19982     19980     19993     19982     19980     19994     19993     19980     19994
     19980     19982     19984     19980     19982     19986     19984     19982     19986
     19982     19984     19996     19982     19986     19995     20003     20001     20013
     20003     20001     20014     20003     20001     20015     20013     20001     20014
     20013     20001     20015     20014     20001     20015     20001     20003     20005
     20001     20003     20016     20001     20003     20017     20005     20003     20016
     20005     20003     20017     20016     20003     20017     20003     20005     20007
     20003     20005     20018     20003     20005     20019     20007     20005     20018
     20007     20005     20019     20018     20005     20019     20005     20007     20009
     20005     20007     20011     20009     20007     20011     20007     20009     20021
     20007     20011     20020     20028     20026     20038     20028     20026     20039
     20028     20026     20040     20038     20026     20039     20038     20026     20040
     20039     20026     20040     20026     20028     20030     20026     20028     20041
     20026     20028     20042     20030     20028     20041     20030     20028     20042
     20041     20028     20042     20028     20030     20032     20028     20030     20043
     20028     20030     20044     20032     20030     20043     20032     20030     20044
     20043     20030     20044     20030     20032     20034     20030     20032     20036
     20034     20032     20036     20032     20034     20046     20032     20036     20045
     20053     20051     20063     20053     20051     20064     20053     20051     20065
     20063     20051     20064     20063     20051     20065     20064     20051     20065
     20051     20053     20055     20051     20053     20066     20051     20053     20067
     20055     20053     20066     20055     20053     20067     20066     20053     20067
     20053     20055     20057     20053     20055     20068     20053     20055     20069
     20057     20055     20068     20057     20055     20069     20068     20055     20069
     20055     20057     20059     20055     20057     20061     20059     20057     20061
     20057     20059     20071     20057     20061     20070     20078     20076     20088
     20078     20076     20089     20078     20076     20090     20088     20076     20089
     20088     20076     20090     20089     20076     20090     20076     20078     20080
     20076     20078     20091     20076     20078     20092     20080     20078     20091
     20080     20078     20092     20091     20078     20092     20078     20080     20082
     20078     20080     20093     20078     20080     20094     20082     20080     20093
     20082     20080     20094     20093     20080     20094     20080     20082     20084
     20080     20082     20086     20084     20082     20086     20082     20084     20096
     20082     20086     20095     20103     20101     20113     20103     20101     20114
     20103     20101     20115     20113     20101     20114     20113     20101     20115
     20114     20101     20115     20101     20103     20105     20101     20103     20116
     20101     20103     20117     20105     20103     20116     20105     20103     20117
     20116     20103     20117     20103     20105     20107     20103     20105     20118
     20103     20105     20119     20107     20105     20118     20107     20105     20119
     20118     20105     20119     20105     20107     20109     20105     20107     20111
     20109     20107     20111     20107     20109     20121     20107     20111     20120
     20128     20126     20138     20128     20126     20139     20128     20126     20140
     20138     20126     20139     20138     20126     20140     20139     20126     20140
     20126     20128     20130     20126     20128     20141     20126     20128     20142
     20130     20128     20141     20130     20128     20142     20141     20128     20142
     20128     20130     20132     20128     20130     20143     20128     20130     20144
     20132     20130     20143     20132     20130     20144     20143     20130     20144
     20130     20132     20134     20130     20132     20136     20134     20132     20136
     20132     20134     20146     20132     20136     20145     20153     20151     20163
     20153     20151     20164     20153     20151     20165     20163     20151     20164
     20163     20151     20165     20164     20151     20165     20151     20153     20155
     20151     20153     20166     20151     20153     20167     20155     20153     20166
     20155     20153     20167     20166     20153     20167     20153     20155     20157
     20153     20155     20168     20153     20155     20169     20157     20155     20168
     20157     20155     20169     20168     20155     20169     20155     20157     20159
     20155     20157     20161     20159     20157     20161     20157     20159     20171
     20157     20161     20170     20178     20176     20188     20178     20176     20189
     20178     20176     20190     20188     20176     20189     20188     20176     20190
     20189     20176     20190     20176     20178     20180     20176     20178     20191
     20176     20178     20192     20180     20178     20191     20180     20178     20192
     20191     20178     20192     20178     20180     20182     20178     20180     20193
     20178     20180     20194     20182     20180     20193     20182     20180     20194
     20193     20180     20194     20180     20182     20184     20180     20182     20186
     20184     20182     20186     20182     20184     20196     20182     20186     20195
     20203     20201     20213     20203     20201     20214     20203     20201     20215
     20213     20201     20214     20213     20201     20215     20214     20201     20215
     20201     20203     20205     20201     20203     20216     20201     20203     20217
     20205     20203     20216     20205     20203     20217     20216     20203     20217
     20203     20205     20207     20203     20205     20218     20203     20205     20219
     20207     20205     20218     20207     20205     20219     20218     20205     20219
     20205     20207     20209     20205     20207     20211     20209     20207     20211
     20207     20209     20221     20207     20211     20220     20228     20226     20238
     20228     20226     20239     20228     20226     20240     20238     20226     20239
     20238     20226     20240     20239     20226     20240     20226     20228     20230
     20226     20228     20241     20226     20228     20242     20230     20228     20241
     20230     20228     20242     20241     20228     20242     20228     20230     20232
     20228     20230     20243     20228     20230     20244     20232     20230     20243
     20232     20230     20244     20243     20230     20244     20230     20232     20234
     20230     20232     20236     20234     20232     20236     20232     20234     20246
     20232     20236     20245     20253     20251     20263     20253     20251     20264
     20253     20251     20265     20263     20251     20264     20263     20251     20265
     20264     20251     20265     20251     20253     20255     20251     20253     20266
     20251     20253     20267     20255     20253     20266     20255     20253     20267
     20266     20253     20267     20253     20255     20257     20253     20255     20268
     20253     20255     20269     20257     20255     20268     20257     20255     20269
     20268     20255     20269     20255     20257     20259     20255     20257     20261
     20259     20257     20261     20257     20259     20271     20257     20261     20270
     20278     20276     20288     20278     20276     20289     20278     20276     20290
     20288     20276     20289     20288     20276     20290     20289     20276     20290
     20276     20278     20280     20276     20278     20291     20276     20278     20292
     20280     20278     20291     20280     20278     20292     20291     20278     20292
     20278     20280     20282     20278     20280     20293     20278     20280     20294
     20282     20280     20293     20282     20280     20294     20293     20280     20294
     20280     20282     20284     20280     20282     20286     20284     20282     20286
     20282     20284     20296     20282     20286     20295     20303     20301     20313
     20303     20301     20314     20303     20301     20315     20313     20301     20314
     20313     20301     20315     20314     20301     20315     20301     20303     20305
     20301     20303     20316     20301     20303     20317     20305     20303     20316
     20305     20303     20317     20316     20303     20317     20303     20305     20307
     20303     20305     20318     20303     20305     20319     20307     20305     20318
     20307     20305     20319     20318     20305     20319     20305     20307     20309
     20305     20307     20311     20309     20307     20311     20307     20309     20321
     20307     20311     20320     20328     20326     20338     20328     20326     20339
     20328     20326     20340     20338     20326     20339     20338     20326     20340
     20339     20326     20340     20326     20328     20330     20326     20328     20341
     20326     20328     20342     20330     20328     20341     20330     20328     20342
     20341     20328     20342     20328     20330     20332     20328     20330     20343
     20328     20330     20344     20332     20330     20343     20332     20330     20344
     20343     20330     20344     20330     20332     20334     20330     20332     20336
     20334     20332     20336     20332     20334     20346     20332     20336     20345
     20353     20351     20363     20353     20351     20364     20353     20351     20365
     20363     20351     20364     20363     20351     20365     20364     20351     20365
     20351     20353     20355     20351     20353     20366     20351     20353     20367
     20355     20353     20366     20355     20353     20367     20366     20353     20367
     20353     20355     20357     20353     20355     20368     20353     20355     20369
     20357     20355     20368     20357     20355     20369     20368     20355     20369
     20355     20357     20359     20355     20357     20361     20359     20357     20361
     20357     20359     20371     20357     20361     20370     20378     20376     20388
     20378     20376     20389     20378     20376     20390     20388     20376     20389
     20388     20376     20390     20389     20376     20390     20376     20378     20380
     20376     20378     20391     20376     20378     20392     20380     20378     20391
     20380     20378     20392     20391     20378     20392     20378     20380     20382
     20378     20380     20393     20378     20380     20394     20382     20380     20393
     20382     20380     20394     20393     20380     20394     20380     20382     20384
     20380     20382     20386     20384     20382     20386     20382     20384     20396
     20382     20386     20395     20403     20401     20413     20403     20401     20414
     20403     20401     20415     20413     20401     20414     20413     20401     20415
     20414     20401     20415     20401     20403     20405     20401     20403     20416
     20401     20403     20417     20405     20403     20416     20405     20403     20417
     20416     20403     20417     20403     20405     20407     20403     20405     20418
     20403     20405     20419     20407     20405     20418     20407     20405     20419
     20418     20405     20419     20405     20407     20409     20405     20407     20411
     20409     20407     20411     20407     20409     20421     20407     20411     20420
     20428     20426     20438     20428     20426     20439     20428     20426     20440
     20438     20426     20439     20438     20426     20440     20439     20426     20440
     20426     20428     20430     20426     20428     20441     20426     20428     20442
     20430     20428     20441     20430     20428     20442     20441     20428     20442
     20428     20430     20432     20428     20430     20443     20428     20430     20444
     20432     20430     20443     20432     20430     20444     20443     20430     20444
     20430     20432     20434     20430     20432     20436     20434     20432     20436
     20432     20434     20446     20432     20436     20445     20453     20451     20463
     20453     20451     20464     20453     20451     20465     20463     20451     20464
     20463     20451     20465     20464     20451     20465     20451     20453     20455
     20451     20453     20466     20451     20453     20467     20455     20453     20466
     20455     20453     20467     20466     20453     20467     20453     20455     20457
     20453     20455     20468     20453     20455     20469     20457     20455     20468
     20457     20455     20469     20468     20455     20469     20455     20457     20459
     20455     20457     20461     20459     20457     20461     20457     20459     20471
     20457     20461     20470     20478     20476     20488     20478     20476     20489
     20478     20476     20490     20488     20476     20489     20488     20476     20490
     20489     20476     20490     20476     20478     20480     20476     20478     20491
     20476     20478     20492     20480     20478     20491     20480     20478     20492
     20491     20478     20492     20478     20480     20482     20478     20480     20493
     20478     20480     20494     20482     20480     20493     20482     20480     20494
     20493     20480     20494     20480     20482     20484     20480     20482     20486
     20484     20482     20486     20482     20484     20496     20482     20486     20495
     20503     20501     20513     20503     20501     20514     20503     20501     20515
     20513     20501     20514     20513     20501     20515     20514     20501     20515
     20501     20503     20505     20501     20503     20516     20501     20503     20517
     20505     20503     20516     20505     20503     20517     20516     20503     20517
     20503     20505     20507     20503     20505     20518     20503     20505     20519
     20507     20505     20518     20507     20505     20519     20518     20505     20519
     20505     20507     20509     20505     20507     20511     20509     20507     20511
     20507     20509     20521     20507     20511     20520     20528     20526     20538
     20528     20526     20539     20528     20526     20540     20538     20526     20539
     20538     20526     20540     20539     20526     20540     20526     20528     20530
     20526     20528     20541     20526     20528     20542     20530     20528     20541
     20530     20528     20542     20541     20528     20542     20528     20530     20532
     20528     20530     20543     20528     20530     20544     20532     20530     20543
     20532     20530     20544     20543     20530     20544     20530     20532     20534
     20530     20532     20536     20534     20532     20536     20532     20534     20546
     20532     20536     20545     20553     20551     20563     20553     20551     20564
     20553     20551     20565     20563     20551     20564     20563     20551     20565
     20564     20551     20565     20551     20553     20555     20551     20553     20566
     20551     20553     20567     20555     20553     20566     20555     20553     20567
     20566     20553     20567     20553     20555     20557     20553     20555     20568
     20553     20555     20569     20557     20555     20568     20557     20555     20569
     20568     20555     20569     20555     20557     20559     20555     20557     20561
     20559     20557     20561     20557     20559     20571     20557     20561     20570
     20578     20576     20588     20578     20576     20589     20578     20576     20590
     20588     20576     20589     20588     20576     20590     20589     20576     20590
     20576     20578     20580     20576     20578     20591     20576     20578     20592
     20580     20578     20591     20580     20578     20592     20591     20578     20592
     20578     20580     20582     20578     20580     20593     20578     20580     20594
     20582     20580     20593     20582     20580     20594     20593     20580     20594
     20580     20582     20584     20580     20582     20586     20584     20582     20586
     20582     20584     20596     20582     20586     20595     20603     20601     20613
     20603     20601     20614     20603     20601     20615     20613     20601     20614
     20613     20601     20615     20614     20601     20615     20601     20603     20605
     20601     20603     20616     20601     20603     20617     20605     20603     20616
     20605     20603     20617     20616     20603     20617     20603     20605     20607
     20603     20605     20618     20603     20605     20619     20607     20605     20618
     20607     20605     20619     20618     20605     20619     20605     20607     20609
     20605     20607     20611     20609     20607     20611     20607     20609     20621
     20607     20611     20620     20628     20626     20638     20628     20626     20639
     20628     20626     20640     20638     20626     20639     20638     20626     20640
     20639     20626     20640     20626     20628     20630     20626     20628     20641
     20626     20628     20642     20630     20628     20641     20630     20628     20642
     20641     20628     20642     20628     20630     20632     20628     20630     20643
     20628     20630     20644     20632     20630     20643     20632     20630     20644
     20643     20630     20644     20630     20632     20634     20630     20632     20636
     20634     20632     20636     20632     20634     20646     20632     20636     20645
     20653     20651     20663     20653     20651     20664     20653     20651     20665
     20663     20651     20664     20663     20651     20665     20664     20651     20665
     20651     20653     20655     20651     20653     20666     20651     20653     20667
     20655     20653     20666     20655     20653     20667     20666     20653     20667
     20653     20655     20657     20653     20655     20668     20653     20655     20669
     20657     20655     20668     20657     20655     20669     20668     20655     20669
     20655     20657     20659     20655     20657     20661     20659     20657     20661
     20657     20659     20671     20657     20661     20670     20678     20676     20688
     20678     20676     20689     20678     20676     20690     20688     20676     20689
     20688     20676     20690     20689     20676     20690     20676     20678     20680
     20676     20678     20691     20676     20678     20692     20680     20678     20691
     20680     20678     20692     20691     20678     20692     20678     20680     20682
     20678     20680     20693     20678     20680     20694     20682     20680     20693
     20682     20680     20694     20693     20680     20694     20680     20682     20684
     20680     20682     20686     20684     20682     20686     20682     20684     20696
     20682     20686     20695     20703     20701     20713     20703     20701     20714
     20703     20701     20715     20713     20701     20714     20713     20701     20715
     20714     20701     20715     20701     20703     20705     20701     20703     20716
     20701     20703     20717     20705     20703     20716     20705     20703     20717
     20716     20703     20717     20703     20705     20707     20703     20705     20718
     20703     20705     20719     20707     20705     20718     20707     20705     20719
     20718     20705     20719     20705     20707     20709     20705     20707     20711
     20709     20707     20711     20707     20709     20721     20707     20711     20720
     20728     20726     20738     20728     20726     20739     20728     20726     20740
     20738     20726     20739     20738     20726     20740     20739     20726     20740
     20726     20728     20730     20726     20728     20741     20726     20728     20742
     20730     20728     20741     20730     20728     20742     20741     20728     20742
     20728     20730     20732     20728     20730     20743     20728     20730     20744
     20732     20730     20743     20732     20730     20744     20743     20730     20744
     20730     20732     20734     20730     20732     20736     20734     20732     20736
     20732     20734     20746     20732     20736     20745     20753     20751     20763
     20753     20751     20764     20753     20751     20765     20763     20751     20764
     20763     20751     20765     20764     20751     20765     20751     20753     20755
     20751     20753     20766     20751     20753     20767     20755     20753     20766
     20755     20753     20767     20766     20753     20767     20753     20755     20757
     20753     20755     20768     20753     20755     20769     20757     20755     20768
     20757     20755     20769     20768     20755     20769     20755     20757     20759
     20755     20757     20761     20759     20757     20761     20757     20759     20771
     20757     20761     20770     20778     20776     20788     20778     20776     20789
     20778     20776     20790     20788     20776     20789     20788     20776     20790
     20789     20776     20790     20776     20778     20780     20776     20778     20791
     20776     20778     20792     20780     20778     20791     20780     20778     20792
     20791     20778     20792     20778     20780     20782     20778     20780     20793
     20778     20780     20794     20782     20780     20793     20782     20780     20794
     20793     20780     20794     20780     20782     20784     20780     20782     20786
     20784     20782     20786     20782     20784     20796     20782     20786     20795
     20803     20801     20813     20803     20801     20814     20803     20801     20815
     20813     20801     20814     20813     20801     20815     20814     20801     20815
     20801     20803     20805     20801     20803     20816     20801     20803     20817
     20805     20803     20816     20805     20803     20817     20816     20803     20817
     20803     20805     20807     20803     20805     20818     20803     20805     20819
     20807     20805     20818     20807     20805     20819     20818     20805     20819
     20805     20807     20809     20805     20807     20811     20809     20807     20811
     20807     20809     20821     20807     20811     20820     20828     20826     20838
     20828     20826     20839     20828     20826     20840     20838     20826     20839
     20838     20826     20840     20839     20826     20840     20826     20828     20830
     20826     20828     20841     20826     20828     20842     20830     20828     20841
     20830     20828     20842     20841     20828     20842     20828     20830     20832
     20828     20830     20843     20828     20830     20844     20832     20830     20843
     20832     20830     20844     20843     20830     20844     20830     20832     20834
     20830     20832     20836     20834     20832     20836     20832     20834     20846
     20832     20836     20845     20853     20851     20863     20853     20851     20864
     20853     20851     20865     20863     20851     20864     20863     20851     20865
     20864     20851     20865     20851     20853     20855     20851     20853     20866
     20851     20853     20867     20855     20853     20866     20855     20853     20867
     20866     20853     20867     20853     20855     20857     20853     20855     20868
     20853     20855     20869     20857     20855     20868     20857     20855     20869
     20868     20855     20869     20855     20857     20859     20855     20857     20861
     20859     20857     20861     20857     20859     20871     20857     20861     20870
     20878     20876     20888     20878     20876     20889     20878     20876     20890
     20888     20876     20889     20888     20876     20890     20889     20876     20890
     20876     20878     20880     20876     20878     20891     20876     20878     20892
     20880     20878     20891     20880     20878     20892     20891     20878     20892
     20878     20880     20882     20878     20880     20893     20878     20880     20894
     20882     20880     20893     20882     20880     20894     20893     20880     20894
     20880     20882     20884     20880     20882     20886     20884     20882     20886
     20882     20884     20896     20882     20886     20895     20903     20901     20913
     20903     20901     20914     20903     20901     20915     20913     20901     20914
     20913     20901     20915     20914     20901     20915     20901     20903     20905
     20901     20903     20916     20901     20903     20917     20905     20903     20916
     20905     20903     20917     20916     20903     20917     20903     20905     20907
     20903     20905     20918     20903     20905     20919     20907     20905     20918
     20907     20905     20919     20918     20905     20919     20905     20907     20909
     20905     20907     20911     20909     20907     20911     20907     20909     20921
     20907     20911     20920     20928     20926     20938     20928     20926     20939
     20928     20926     20940     20938     20926     20939     20938     20926     20940
     20939     20926     20940     20926     20928     20930     20926     20928     20941
     20926     20928     20942     20930     20928     20941     20930     20928     20942
     20941     20928     20942     20928     20930     20932     20928     20930     20943
     20928     20930     20944     20932     20930     20943     20932     20930     20944
     20943     20930     20944     20930     20932     20934     20930     20932     20936
     20934     20932     20936     20932     20934     20946     20932     20936     20945
     20953     20951     20963     20953     20951     20964     20953     20951     20965
     20963     20951     20964     20963     20951     20965     20964     20951     20965
     20951     20953     20955     20951     20953     20966     20951     20953     20967
     20955     20953     20966     20955     20953     20967     20966     20953     20967
     20953     20955     20957     20953     20955     20968     20953     20955     20969
     20957     20955     20968     20957     20955     20969     20968     20955     20969
     20955     20957     20959     20955     20957     20961     20959     20957     20961
     20957     20959     20971     20957     20961     20970     20978     20976     20988
     20978     20976     20989     20978     20976     20990     20988     20976     20989
     20988     20976     20990     20989     20976     20990     20976     20978     20980
     20976     20978     20991     20976     20978     20992     20980     20978     20991
     20980     20978     20992     20991     20978     20992     20978     20980     20982
     20978     20980     20993     20978     20980     20994     20982     20980     20993
     20982     20980     20994     20993     20980     20994     20980     20982     20984
     20980     20982     20986     20984     20982     20986     20982     20984     20996
     20982     20986     20995     21003     21001     21013     21003     21001     21014
     21003     21001     21015     21013     21001     21014     21013     21001     21015
     21014     21001     21015     21001     21003     21005     21001     21003     21016
     21001     21003     21017     21005     21003     21016     21005     21003     21017
     21016     21003     21017     21003     21005     21007     21003     21005     21018
     21003     21005     21019     21007     21005     21018     21007     21005     21019
     21018     21005     21019     21005     21007     21009     21005     21007     21011
     21009     21007     21011     21007     21009     21021     21007     21011     21020
     21028     21026     21038     21028     21026     21039     21028     21026     21040
     21038     21026     21039     21038     21026     21040     21039     21026     21040
     21026     21028     21030     21026     21028     21041     21026     21028     21042
     21030     21028     21041     21030     21028     21042     21041     21028     21042
     21028     21030     21032     21028     21030     21043     21028     21030     21044
     21032     21030     21043     21032     21030     21044     21043     21030     21044
     21030     21032     21034     21030     21032     21036     21034     21032     21036
     21032     21034     21046     21032     21036     21045     21053     21051     21063
     21053     21051     21064     21053     21051     21065     21063     21051     21064
     21063     21051     21065     21064     21051     21065     21051     21053     21055
     21051     21053     21066     21051     21053     21067     21055     21053     21066
     21055     21053     21067     21066     21053     21067     21053     21055     21057
     21053     21055     21068     21053     21055     21069     21057     21055     21068
     21057     21055     21069     21068     21055     21069     21055     21057     21059
     21055     21057     21061     21059     21057     21061     21057     21059     21071
     21057     21061     21070     21078     21076     21088     21078     21076     21089
     21078     21076     21090     21088     21076     21089     21088     21076     21090
     21089     21076     21090     21076     21078     21080     21076     21078     21091
     21076     21078     21092     21080     21078     21091     21080     21078     21092
     21091     21078     21092     21078     21080     21082     21078     21080     21093
     21078     21080     21094     21082     21080     21093     21082     21080     21094
     21093     21080     21094     21080     21082     21084     21080     21082     21086
     21084     21082     21086     21082     21084     21096     21082     21086     21095
     21103     21101     21113     21103     21101     21114     21103     21101     21115
     21113     21101     21114     21113     21101     21115     21114     21101     21115
     21101     21103     21105     21101     21103     21116     21101     21103     21117
     21105     21103     21116     21105     21103     21117     21116     21103     21117
     21103     21105     21107     21103     21105     21118     21103     21105     21119
     21107     21105     21118     21107     21105     21119     21118     21105     21119
     21105     21107     21109     21105     21107     21111     21109     21107     21111
     21107     21109     21121     21107     21111     21120     21128     21126     21138
     21128     21126     21139     21128     21126     21140     21138     21126     21139
     21138     21126     21140     21139     21126     21140     21126     21128     21130
     21126     21128     21141     21126     21128     21142     21130     21128     21141
     21130     21128     21142     21141     21128     21142     21128     21130     21132
     21128     21130     21143     21128     21130     21144     21132     21130     21143
     21132     21130     21144     21143     21130     21144     21130     21132     21134
     21130     21132     21136     21134     21132     21136     21132     21134     21146
     21132     21136     21145     21153     21151     21163     21153     21151     21164
     21153     21151     21165     21163     21151     21164     21163     21151     21165
     21164     21151     21165     21151     21153     21155     21151     21153     21166
     21151     21153     21167     21155     21153     21166     21155     21153     21167
     21166     21153     21167     21153     21155     21157     21153     21155     21168
     21153     21155     21169     21157     21155     21168     21157     21155     21169
     21168     21155     21169     21155     21157     21159     21155     21157     21161
     21159     21157     21161     21157     21159     21171     21157     21161     21170
     21178     21176     21188     21178     21176     21189     21178     21176     21190
     21188     21176     21189     21188     21176     21190     21189     21176     21190
     21176     21178     21180     21176     21178     21191     21176     21178     21192
     21180     21178     21191     21180     21178     21192     21191     21178     21192
     21178     21180     21182     21178     21180     21193     21178     21180     21194
     21182     21180     21193     21182     21180     21194     21193     21180     21194
     21180     21182     21184     21180     21182     21186     21184     21182     21186
     21182     21184     21196     21182     21186     21195     21203     21201     21213
     21203     21201     21214     21203     21201     21215     21213     21201     21214
     21213     21201     21215     21214     21201     21215     21201     21203     21205
     21201     21203     21216     21201     21203     21217     21205     21203     21216
     21205     21203     21217     21216     21203     21217     21203     21205     21207
     21203     21205     21218     21203     21205     21219     21207     21205     21218
     21207     21205     21219     21218     21205     21219     21205     21207     21209
     21205     21207     21211     21209     21207     21211     21207     21209     21221
     21207     21211     21220     21228     21226     21238     21228     21226     21239
     21228     21226     21240     21238     21226     21239     21238     21226     21240
     21239     21226     21240     21226     21228     21230     21226     21228     21241
     21226     21228     21242     21230     21228     21241     21230     21228     21242
     21241     21228     21242     21228     21230     21232     21228     21230     21243
     21228     21230     21244     21232     21230     21243     21232     21230     21244
     21243     21230     21244     21230     21232     21234     21230     21232     21236
     21234     21232     21236     21232     21234     21246     21232     21236     21245
     21253     21251     21263     21253     21251     21264     21253     21251     21265
     21263     21251     21264     21263     21251     21265     21264     21251     21265
     21251     21253     21255     21251     21253     21266     21251     21253     21267
     21255     21253     21266     21255     21253     21267     21266     21253     21267
     21253     21255     21257     21253     21255     21268     21253     21255     21269
     21257     21255     21268     21257     21255     21269     21268     21255     21269
     21255     21257     21259     21255     21257     21261     21259     21257     21261
     21257     21259     21271     21257     21261     21270     21278     21276     21288
     21278     21276     21289     21278     21276     21290     21288     21276     21289
     21288     21276     21290     21289     21276     21290     21276     21278     21280
     21276     21278     21291     21276     21278     21292     21280     21278     21291
     21280     21278     21292     21291     21278     21292     21278     21280     21282
     21278     21280     21293     21278     21280     21294     21282     21280     21293
     21282     21280     21294     21293     21280     21294     21280     21282     21284
     21280     21282     21286     21284     21282     21286     21282     21284     21296
     21282     21286     21295     21303     21301     21313     21303     21301     21314
     21303     21301     21315     21313     21301     21314     21313     21301     21315
     21314     21301     21315     21301     21303     21305     21301     21303     21316
     21301     21303     21317     21305     21303     21316     21305     21303     21317
     21316     21303     21317     21303     21305     21307     21303     21305     21318
     21303     21305     21319     21307     21305     21318     21307     21305     21319
     21318     21305     21319     21305     21307     21309     21305     21307     21311
     21309     21307     21311     21307     21309     21321     21307     21311     21320
     21328     21326     21338     21328     21326     21339     21328     21326     21340
     21338     21326     21339     21338     21326     21340     21339     21326     21340
     21326     21328     21330     21326     21328     21341     21326     21328     21342
     21330     21328     21341     21330     21328     21342     21341     21328     21342
     21328     21330     21332     21328     21330     21343     21328     21330     21344
     21332     21330     21343     21332     21330     21344     21343     21330     21344
     21330     21332     21334     21330     21332     21336     21334     21332     21336
     21332     21334     21346     21332     21336     21345     21353     21351     21363
     21353     21351     21364     21353     21351     21365     21363     21351     21364
     21363     21351     21365     21364     21351     21365     21351     21353     21355
     21351     21353     21366     21351     21353     21367     21355     21353     21366
     21355     21353     21367     21366     21353     21367     21353     21355     21357
     21353     21355     21368     21353     21355     21369     21357     21355     21368
     21357     21355     21369     21368     21355     21369     21355     21357     21359
     21355     21357     21361     21359     21357     21361     21357     21359     21371
     21357     21361     21370     21378     21376     21388     21378     21376     21389
     21378     21376     21390     21388     21376     21389     21388     21376     21390
     21389     21376     21390     21376     21378     21380     21376     21378     21391
     21376     21378     21392     21380     21378     21391     21380     21378     21392
     21391     21378     21392     21378     21380     21382     21378     21380     21393
     21378     21380     21394     21382     21380     21393     21382     21380     21394
     21393     21380     21394     21380     21382     21384     21380     21382     21386
     21384     21382     21386     21382     21384     21396     21382     21386     21395
     21403     21401     21413     21403     21401     21414     21403     21401     21415
     21413     21401     21414     21413     21401     21415     21414     21401     21415
     21401     21403     21405     21401     21403     21416     21401     21403     21417
     21405     21403     21416     21405     21403     21417     21416     21403     21417
     21403     21405     21407     21403     21405     21418     21403     21405     21419
     21407     21405     21418     21407     21405     21419     21418     21405     21419
     21405     21407     21409     21405     21407     21411     21409     21407     21411
     21407     21409     21421     21407     21411     21420     21428     21426     21438
     21428     21426     21439     21428     21426     21440     21438     21426     21439
     21438     21426     21440     21439     21426     21440     21426     21428     21430
     21426     21428     21441     21426     21428     21442     21430     21428     21441
     21430     21428     21442     21441     21428     21442     21428     21430     21432
     21428     21430     21443     21428     21430     21444     21432     21430     21443
     21432     21430     21444     21443     21430     21444     21430     21432     21434
     21430     21432     21436     21434     21432     21436     21432     21434     21446
     21432     21436     21445     21453     21451     21463     21453     21451     21464
     21453     21451     21465     21463     21451     21464     21463     21451     21465
     21464     21451     21465     21451     21453     21455     21451     21453     21466
     21451     21453     21467     21455     21453     21466     21455     21453     21467
     21466     21453     21467     21453     21455     21457     21453     21455     21468
     21453     21455     21469     21457     21455     21468     21457     21455     21469
     21468     21455     21469     21455     21457     21459     21455     21457     21461
     21459     21457     21461     21457     21459     21471     21457     21461     21470
     21478     21476     21488     21478     21476     21489     21478     21476     21490
     21488     21476     21489     21488     21476     21490     21489     21476     21490
     21476     21478     21480     21476     21478     21491     21476     21478     21492
     21480     21478     21491     21480     21478     21492     21491     21478     21492
     21478     21480     21482     21478     21480     21493     21478     21480     21494
     21482     21480     21493     21482     21480     21494     21493     21480     21494
     21480     21482     21484     21480     21482     21486     21484     21482     21486
     21482     21484     21496     21482     21486     21495     21503     21501     21513
     21503     21501     21514     21503     21501     21515     21513     21501     21514
     21513     21501     21515     21514     21501     21515     21501     21503     21505
     21501     21503     21516     21501     21503     21517     21505     21503     21516
     21505     21503     21517     21516     21503     21517     21503     21505     21507
     21503     21505     21518     21503     21505     21519     21507     21505     21518
     21507     21505     21519     21518     21505     21519     21505     21507     21509
     21505     21507     21511     21509     21507     21511     21507     21509     21521
     21507     21511     21520     21528     21526     21538     21528     21526     21539
     21528     21526     21540     21538     21526     21539     21538     21526     21540
     21539     21526     21540     21526     21528     21530     21526     21528     21541
     21526     21528     21542     21530     21528     21541     21530     21528     21542
     21541     21528     21542     21528     21530     21532     21528     21530     21543
     21528     21530     21544     21532     21530     21543     21532     21530     21544
     21543     21530     21544     21530     21532     21534     21530     21532     21536
     21534     21532     21536     21532     21534     21546     21532     21536     21545
     21553     21551     21563     21553     21551     21564     21553     21551     21565
     21563     21551     21564     21563     21551     21565     21564     21551     21565
     21551     21553     21555     21551     21553     21566     21551     21553     21567
     21555     21553     21566     21555     21553     21567     21566     21553     21567
     21553     21555     21557     21553     21555     21568     21553     21555     21569
     21557     21555     21568     21557     21555     21569     21568     21555     21569
     21555     21557     21559     21555     21557     21561     21559     21557     21561
     21557     21559     21571     21557     21561     21570     21578     21576     21588
     21578     21576     21589     21578     21576     21590     21588     21576     21589
     21588     21576     21590     21589     21576     21590     21576     21578     21580
     21576     21578     21591     21576     21578     21592     21580     21578     21591
     21580     21578     21592     21591     21578     21592     21578     21580     21582
     21578     21580     21593     21578     21580     21594     21582     21580     21593
     21582     21580     21594     21593     21580     21594     21580     21582     21584
     21580     21582     21586     21584     21582     21586     21582     21584     21596
     21582     21586     21595     21603     21601     21613     21603     21601     21614
     21603     21601     21615     21613     21601     21614     21613     21601     21615
     21614     21601     21615     21601     21603     21605     21601     21603     21616
     21601     21603     21617     21605     21603     21616     21605     21603     21617
     21616     21603     21617     21603     21605     21607     21603     21605     21618
     21603     21605     21619     21607     21605     21618     21607     21605     21619
     21618     21605     21619     21605     21607     21609     21605     21607     21611
     21609     21607     21611     21607     21609     21621     21607     21611     21620
     21628     21626     21638     21628     21626     21639     21628     21626     21640
     21638     21626     21639     21638     21626     21640     21639     21626     21640
     21626     21628     21630     21626     21628     21641     21626     21628     21642
     21630     21628     21641     21630     21628     21642     21641     21628     21642
     21628     21630     21632     21628     21630     21643     21628     21630     21644
     21632     21630     21643     21632     21630     21644     21643     21630     21644
     21630     21632     21634     21630     21632     21636     21634     21632     21636
     21632     21634     21646     21632     21636     21645     21653     21651     21663
     21653     21651     21664     21653     21651     21665     21663     21651     21664
     21663     21651     21665     21664     21651     21665     21651     21653     21655
     21651     21653     21666     21651     21653     21667     21655     21653     21666
     21655     21653     21667     21666     21653     21667     21653     21655     21657
     21653     21655     21668     21653     21655     21669     21657     21655     21668
     21657     21655     21669     21668     21655     21669     21655     21657     21659
     21655     21657     21661     21659     21657     21661     21657     21659     21671
     21657     21661     21670     21678     21676     21688     21678     21676     21689
     21678     21676     21690     21688     21676     21689     21688     21676     21690
     21689     21676     21690     21676     21678     21680     21676     21678     21691
     21676     21678     21692     21680     21678     21691     21680     21678     21692
     21691     21678     21692     21678     21680     21682     21678     21680     21693
     21678     21680     21694     21682     21680     21693     21682     21680     21694
     21693     21680     21694     21680     21682     21684     21680     21682     21686
     21684     21682     21686     21682     21684     21696     21682     21686     21695
     21703     21701     21713     21703     21701     21714     21703     21701     21715
     21713     21701     21714     21713     21701     21715     21714     21701     21715
     21701     21703     21705     21701     21703     21716     21701     21703     21717
     21705     21703     21716     21705     21703     21717     21716     21703     21717
     21703     21705     21707     21703     21705     21718     21703     21705     21719
     21707     21705     21718     21707     21705     21719     21718     21705     21719
     21705     21707     21709     21705     21707     21711     21709     21707     21711
     21707     21709     21721     21707     21711     21720     21728     21726     21738
     21728     21726     21739     21728     21726     21740     21738     21726     21739
     21738     21726     21740     21739     21726     21740     21726     21728     21730
     21726     21728     21741     21726     21728     21742     21730     21728     21741
     21730     21728     21742     21741     21728     21742     21728     21730     21732
     21728     21730     21743     21728     21730     21744     21732     21730     21743
     21732     21730     21744     21743     21730     21744     21730     21732     21734
     21730     21732     21736     21734     21732     21736     21732     21734     21746
     21732     21736     21745     21753     21751     21763     21753     21751     21764
     21753     21751     21765     21763     21751     21764     21763     21751     21765
     21764     21751     21765     21751     21753     21755     21751     21753     21766
     21751     21753     21767     21755     21753     21766     21755     21753     21767
     21766     21753     21767     21753     21755     21757     21753     21755     21768
     21753     21755     21769     21757     21755     21768     21757     21755     21769
     21768     21755     21769     21755     21757     21759     21755     21757     21761
     21759     21757     21761     21757     21759     21771     21757     21761     21770
     21778     21776     21788     21778     21776     21789     21778     21776     21790
     21788     21776     21789     21788     21776     21790     21789     21776     21790
     21776     21778     21780     21776     21778     21791     21776     21778     21792
     21780     21778     21791     21780     21778     21792     21791     21778     21792
     21778     21780     21782     21778     21780     21793     21778     21780     21794
     21782     21780     21793     21782     21780     21794     21793     21780     21794
     21780     21782     21784     21780     21782     21786     21784     21782     21786
     21782     21784     21796     21782     21786     21795     21803     21801     21813
     21803     21801     21814     21803     21801     21815     21813     21801     21814
     21813     21801     21815     21814     21801     21815     21801     21803     21805
     21801     21803     21816     21801     21803     21817     21805     21803     21816
     21805     21803     21817     21816     21803     21817     21803     21805     21807
     21803     21805     21818     21803     21805     21819     21807     21805     21818
     21807     21805     21819     21818     21805     21819     21805     21807     21809
     21805     21807     21811     21809     21807     21811     21807     21809     21821
     21807     21811     21820     21828     21826     21838     21828     21826     21839
     21828     21826     21840     21838     21826     21839     21838     21826     21840
     21839     21826     21840     21826     21828     21830     21826     21828     21841
     21826     21828     21842     21830     21828     21841     21830     21828     21842
     21841     21828     21842     21828     21830     21832     21828     21830     21843
     21828     21830     21844     21832     21830     21843     21832     21830     21844
     21843     21830     21844     21830     21832     21834     21830     21832     21836
     21834     21832     21836     21832     21834     21846     21832     21836     21845
     21853     21851     21863     21853     21851     21864     21853     21851     21865
     21863     21851     21864     21863     21851     21865     21864     21851     21865
     21851     21853     21855     21851     21853     21866     21851     21853     21867
     21855     21853     21866     21855     21853     21867     21866     21853     21867
     21853     21855     21857     21853     21855     21868     21853     21855     21869
     21857     21855     21868     21857     21855     21869     21868     21855     21869
     21855     21857     21859     21855     21857     21861     21859     21857     21861
     21857     21859     21871     21857     21861     21870     21878     21876     21888
     21878     21876     21889     21878     21876     21890     21888     21876     21889
     21888     21876     21890     21889     21876     21890     21876     21878     21880
     21876     21878     21891     21876     21878     21892     21880     21878     21891
     21880     21878     21892     21891     21878     21892     21878     21880     21882
     21878     21880     21893     21878     21880     21894     21882     21880     21893
     21882     21880     21894     21893     21880     21894     21880     21882     21884
     21880     21882     21886     21884     21882     21886     21882     21884     21896
     21882     21886     21895     21903     21901     21913     21903     21901     21914
     21903     21901     21915     21913     21901     21914     21913     21901     21915
     21914     21901     21915     21901     21903     21905     21901     21903     21916
     21901     21903     21917     21905     21903     21916     21905     21903     21917
     21916     21903     21917     21903     21905     21907     21903     21905     21918
     21903     21905     21919     21907     21905     21918     21907     21905     21919
     21918     21905     21919     21905     21907     21909     21905     21907     21911
     21909     21907     21911     21907     21909     21921     21907     21911     21920
     21928     21926     21938     21928     21926     21939     21928     21926     21940
     21938     21926     21939     21938     21926     21940     21939     21926     21940
     21926     21928     21930     21926     21928     21941     21926     21928     21942
     21930     21928     21941     21930     21928     21942     21941     21928     21942
     21928     21930     21932     21928     21930     21943     21928     21930     21944
     21932     21930     21943     21932     21930     21944     21943     21930     21944
     21930     21932     21934     21930     21932     21936     21934     21932     21936
     21932     21934     21946     21932     21936     21945     21953     21951     21963
     21953     21951     21964     21953     21951     21965     21963     21951     21964
     21963     21951     21965     21964     21951     21965     21951     21953     21955
     21951     21953     21966     21951     21953     21967     21955     21953     21966
     21955     21953     21967     21966     21953     21967     21953     21955     21957
     21953     21955     21968     21953     21955     21969     21957     21955     21968
     21957     21955     21969     21968     21955     21969     21955     21957     21959
     21955     21957     21961     21959     21957     21961     21957     21959     21971
     21957     21961     21970     21978     21976     21988     21978     21976     21989
     21978     21976     21990     21988     21976     21989     21988     21976     21990
     21989     21976     21990     21976     21978     21980     21976     21978     21991
     21976     21978     21992     21980     21978     21991     21980     21978     21992
     21991     21978     21992     21978     21980     21982     21978     21980     21993
     21978     21980     21994     21982     21980     21993     21982     21980     21994
     21993     21980     21994     21980     21982     21984     21980     21982     21986
     21984     21982     21986     21982     21984     21996     21982     21986     21995
     22003     22001     22013     22003     22001     22014     22003     22001     22015
     22013     22001     22014     22013     22001     22015     22014     22001     22015
     22001     22003     22005     22001     22003     22016     22001     22003     22017
     22005     22003     22016     22005     22003     22017     22016     22003     22017
     22003     22005     22007     22003     22005     22018     22003     22005     22019
     22007     22005     22018     22007     22005     22019     22018     22005     22019
     22005     22007     22009     22005     22007     22011     22009     22007     22011
     22007     22009     22021     22007     22011     22020     22028     22026     22038
     22028     22026     22039     22028     22026     22040     22038     22026     22039
     22038     22026     22040     22039     22026     22040     22026     22028     22030
     22026     22028     22041     22026     22028     22042     22030     22028     22041
     22030     22028     22042     22041     22028     22042     22028     22030     22032
     22028     22030     22043     22028     22030     22044     22032     22030     22043
     22032     22030     22044     22043     22030     22044     22030     22032     22034
     22030     22032     22036     22034     22032     22036     22032     22034     22046
     22032     22036     22045     22053     22051     22063     22053     22051     22064
     22053     22051     22065     22063     22051     22064     22063     22051     22065
     22064     22051     22065     22051     22053     22055     22051     22053     22066
     22051     22053     22067     22055     22053     22066     22055     22053     22067
     22066     22053     22067     22053     22055     22057     22053     22055     22068
     22053     22055     22069     22057     22055     22068     22057     22055     22069
     22068     22055     22069     22055     22057     22059     22055     22057     22061
     22059     22057     22061     22057     22059     22071     22057     22061     22070
     22078     22076     22088     22078     22076     22089     22078     22076     22090
     22088     22076     22089     22088     22076     22090     22089     22076     22090
     22076     22078     22080     22076     22078     22091     22076     22078     22092
     22080     22078     22091     22080     22078     22092     22091     22078     22092
     22078     22080     22082     22078     22080     22093     22078     22080     22094
     22082     22080     22093     22082     22080     22094     22093     22080     22094
     22080     22082     22084     22080     22082     22086     22084     22082     22086
     22082     22084     22096     22082     22086     22095     22103     22101     22113
     22103     22101     22114     22103     22101     22115     22113     22101     22114
     22113     22101     22115     22114     22101     22115     22101     22103     22105
     22101     22103     22116     22101     22103     22117     22105     22103     22116
     22105     22103     22117     22116     22103     22117     22103     22105     22107
     22103     22105     22118     22103     22105     22119     22107     22105     22118
     22107     22105     22119     22118     22105     22119     22105     22107     22109
     22105     22107     22111     22109     22107     22111     22107     22109     22121
     22107     22111     22120     22128     22126     22138     22128     22126     22139
     22128     22126     22140     22138     22126     22139     22138     22126     22140
     22139     22126     22140     22126     22128     22130     22126     22128     22141
     22126     22128     22142     22130     22128     22141     22130     22128     22142
     22141     22128     22142     22128     22130     22132     22128     22130     22143
     22128     22130     22144     22132     22130     22143     22132     22130     22144
     22143     22130     22144     22130     22132     22134     22130     22132     22136
     22134     22132     22136     22132     22134     22146     22132     22136     22145
     22153     22151     22163     22153     22151     22164     22153     22151     22165
     22163     22151     22164     22163     22151     22165     22164     22151     22165
     22151     22153     22155     22151     22153     22166     22151     22153     22167
     22155     22153     22166     22155     22153     22167     22166     22153     22167
     22153     22155     22157     22153     22155     22168     22153     22155     22169
     22157     22155     22168     22157     22155     22169     22168     22155     22169
     22155     22157     22159     22155     22157     22161     22159     22157     22161
     22157     22159     22171     22157     22161     22170     22178     22176     22188
     22178     22176     22189     22178     22176     22190     22188     22176     22189
     22188     22176     22190     22189     22176     22190     22176     22178     22180
     22176     22178     22191     22176     22178     22192     22180     22178     22191
     22180     22178     22192     22191     22178     22192     22178     22180     22182
     22178     22180     22193     22178     22180     22194     22182     22180     22193
     22182     22180     22194     22193     22180     22194     22180     22182     22184
     22180     22182     22186     22184     22182     22186     22182     22184     22196
     22182     22186     22195     22203     22201     22213     22203     22201     22214
     22203     22201     22215     22213     22201     22214     22213     22201     22215
     22214     22201     22215     22201     22203     22205     22201     22203     22216
     22201     22203     22217     22205     22203     22216     22205     22203     22217
     22216     22203     22217     22203     22205     22207     22203     22205     22218
     22203     22205     22219     22207     22205     22218     22207     22205     22219
     22218     22205     22219     22205     22207     22209     22205     22207     22211
     22209     22207     22211     22207     22209     22221     22207     22211     22220
     22228     22226     22238     22228     22226     22239     22228     22226     22240
     22238     22226     22239     22238     22226     22240     22239     22226     22240
     22226     22228     22230     22226     22228     22241     22226     22228     22242
     22230     22228     22241     22230     22228     22242     22241     22228     22242
     22228     22230     22232     22228     22230     22243     22228     22230     22244
     22232     22230     22243     22232     22230     22244     22243     22230     22244
     22230     22232     22234     22230     22232     22236     22234     22232     22236
     22232     22234     22246     22232     22236     22245     22253     22251     22263
     22253     22251     22264     22253     22251     22265     22263     22251     22264
     22263     22251     22265     22264     22251     22265     22251     22253     22255
     22251     22253     22266     22251     22253     22267     22255     22253     22266
     22255     22253     22267     22266     22253     22267     22253     22255     22257
     22253     22255     22268     22253     22255     22269     22257     22255     22268
     22257     22255     22269     22268     22255     22269     22255     22257     22259
     22255     22257     22261     22259     22257     22261     22257     22259     22271
     22257     22261     22270     22278     22276     22288     22278     22276     22289
     22278     22276     22290     22288     22276     22289     22288     22276     22290
     22289     22276     22290     22276     22278     22280     22276     22278     22291
     22276     22278     22292     22280     22278     22291     22280     22278     22292
     22291     22278     22292     22278     22280     22282     22278     22280     22293
     22278     22280     22294     22282     22280     22293     22282     22280     22294
     22293     22280     22294     22280     22282     22284     22280     22282     22286
     22284     22282     22286     22282     22284     22296     22282     22286     22295
     22303     22301     22313     22303     22301     22314     22303     22301     22315
     22313     22301     22314     22313     22301     22315     22314     22301     22315
     22301     22303     22305     22301     22303     22316     22301     22303     22317
     22305     22303     22316     22305     22303     22317     22316     22303     22317
     22303     22305     22307     22303     22305     22318     22303     22305     22319
     22307     22305     22318     22307     22305     22319     22318     22305     22319
     22305     22307     22309     22305     22307     22311     22309     22307     22311
     22307     22309     22321     22307     22311     22320     22328     22326     22338
     22328     22326     22339     22328     22326     22340     22338     22326     22339
     22338     22326     22340     22339     22326     22340     22326     22328     22330
     22326     22328     22341     22326     22328     22342     22330     22328     22341
     22330     22328     22342     22341     22328     22342     22328     22330     22332
     22328     22330     22343     22328     22330     22344     22332     22330     22343
     22332     22330     22344     22343     22330     22344     22330     22332     22334
     22330     22332     22336     22334     22332     22336     22332     22334     22346
     22332     22336     22345     22353     22351     22363     22353     22351     22364
     22353     22351     22365     22363     22351     22364     22363     22351     22365
     22364     22351     22365     22351     22353     22355     22351     22353     22366
     22351     22353     22367     22355     22353     22366     22355     22353     22367
     22366     22353     22367     22353     22355     22357     22353     22355     22368
     22353     22355     22369     22357     22355     22368     22357     22355     22369
     22368     22355     22369     22355     22357     22359     22355     22357     22361
     22359     22357     22361     22357     22359     22371     22357     22361     22370
     22378     22376     22388     22378     22376     22389     22378     22376     22390
     22388     22376     22389     22388     22376     22390     22389     22376     22390
     22376     22378     22380     22376     22378     22391     22376     22378     22392
     22380     22378     22391     22380     22378     22392     22391     22378     22392
     22378     22380     22382     22378     22380     22393     22378     22380     22394
     22382     22380     22393     22382     22380     22394     22393     22380     22394
     22380     22382     22384     22380     22382     22386     22384     22382     22386
     22382     22384     22396     22382     22386     22395     22403     22401     22413
     22403     22401     22414     22403     22401     22415     22413     22401     22414
     22413     22401     22415     22414     22401     22415     22401     22403     22405
     22401     22403     22416     22401     22403     22417     22405     22403     22416
     22405     22403     22417     22416     22403     22417     22403     22405     22407
     22403     22405     22418     22403     22405     22419     22407     22405     22418
     22407     22405     22419     22418     22405     22419     22405     22407     22409
     22405     22407     22411     22409     22407     22411     22407     22409     22421
     22407     22411     22420     22428     22426     22438     22428     22426     22439
     22428     22426     22440     22438     22426     22439     22438     22426     22440
     22439     22426     22440     22426     22428     22430     22426     22428     22441
     22426     22428     22442     22430     22428     22441     22430     22428     22442
     22441     22428     22442     22428     22430     22432     22428     22430     22443
     22428     22430     22444     22432     22430     22443     22432     22430     22444
     22443     22430     22444     22430     22432     22434     22430     22432     22436
     22434     22432     22436     22432     22434     22446     22432     22436     22445
     22453     22451     22463     22453     22451     22464     22453     22451     22465
     22463     22451     22464     22463     22451     22465     22464     22451     22465
     22451     22453     22455     22451     22453     22466     22451     22453     22467
     22455     22453     22466     22455     22453     22467     22466     22453     22467
     22453     22455     22457     22453     22455     22468     22453     22455     22469
     22457     22455     22468     22457     22455     22469     22468     22455     22469
     22455     22457     22459     22455     22457     22461     22459     22457     22461
     22457     22459     22471     22457     22461     22470     22478     22476     22488
     22478     22476     22489     22478     22476     22490     22488     22476     22489
     22488     22476     22490     22489     22476     22490     22476     22478     22480
     22476     22478     22491     22476     22478     22492     22480     22478     22491
     22480     22478     22492     22491     22478     22492     22478     22480     22482
     22478     22480     22493     22478     22480     22494     22482     22480     22493
     22482     22480     22494     22493     22480     22494     22480     22482     22484
     22480     22482     22486     22484     22482     22486     22482     22484     22496
     22482     22486     22495

     27000 !NPHI: dihedrals
         1         6         8        10         1         6         8        11
         1         6        14        16         1         6        14        17
         3         1         6         8         3         1         6        14
         4         1         6         8         4         1         6        14
         5         1         6         8         5         1         6        14
         6         8        11        13         6         8        11        17
         6        14        17        11         6        14        17        19
         8         6        14        16         8         6        14        17
         8        11        17        14         8        11        17        19
        10         8         6        14        10         8        11        13
        10         8        11        17        11         8         6        14
        11        17        14        16        13        11        17        14
        13        11        17        19        16        14        17        19
        21        26        28        30        21        26        28        31
        21        26        34        36        21        26        34        37
        23        21        26        28        23        21        26        34
        24        21        26        28        24        21        26        34
        25        21        26        28        25        21        26        34
        26        28        31        33        26        28        31        37
        26        34        37        31        26        34        37        39
        28        26        34        36        28        26        34        37
        28        31        37        34        28        31        37        39
        30        28        26        34        30        28        31        33
        30        28        31        37        31        28        26        34
        31        37        34        36        33        31        37        34
        33        31        37        39        36        34        37        39
        41        46        48        50        41        46        48        51
        41        46        54        56        41        46        54        57
        43        41        46        48        43        41        46        54
        44        41        46        48        44        41        46        54
        45        41        46        48        45        41        46        54
        46        48        51        53        46        48        51        57
        46        54        57        51        46        54        57        59
        48        46        54        56        48        46        54        57
        48        51        57        54        48        51        57        59
        50        48        46        54        50        48        51        53
        50        48        51        57        51        48        46        54
        51        57        54        56        53        51        57        54
        53        51        57        59        56        54        57        59
        61        66        68        70        61        66        68        71
        61        66        74        76        61        66        74        77
        63        61        66        68        63        61        66        74
        64        61        66        68        64        61        66        74
        65        61        66        68        65        61        66        74
        66        68        71        73        66        68        71        77
        66        74        77        71        66        74        77        79
        68        66        74        76        68        66        74        77
        68        71        77        74        68        71        77        79
        70        68        66        74        70        68        71        73
        70        68        71        77        71        68        66        74
        71        77        74        76        73        71        77        74
        73        71        77        79        76        74        77        79
        81        86        88        90        81        86        88        91
        81        86        94        96        81        86        94        97
        83        81        86        88        83        81        86        94
        84        81        86        88        84        81        86        94
        85        81        86        88        85        81        86        94
        86        88        91        93        86        88        91        97
        86        94        97        91        86        94        97        99
        88        86        94        96        88        86        94        97
        88        91        97        94        88        91        97        99
        90        88        86        94        90        88        91        93
        90        88        91        97        91        88        86        94
        91        97        94        96        93        91        97        94
        93        91        97        99        96        94        97        99
       101       106       108       110       101       106       108       111
       101       106       114       116       101       106       114       117
       103       101       106       108       103       101       106       114
       104       101       106       108       104       101       106       114
       105       101       106       108       105       101       106       114
       106       108       111       113       106       108       111       117
       106       114       117       111       106       114       117       119
       108       106       114       116       108       106       114       117
       108       111       117       114       108       111       117       119
       110       108       106       114       110       108       111       113
       110       108       111       117       111       108       106       114
       111       117       114       116       113       111       117       114
       113       111       117       119       116       114       117       119
       121       126       128       130       121       126       128       131
       121       126       134       136       121       126       134       137
       123       121       126       128       123       121       126       134
       124       121       126       128       124       121       126       134
       125       121       126       128       125       121       126       134
       126       128       131       133       126       128       131       137
       126       134       137       131       126       134       137       139
       128       126       134       136       128       126       134       137
       128       131       137       134       128       131       137       139
       130       128       126       134       130       128       131       133
       130       128       131       137       131       128       126       134
       131       137       134       136       133       131       137       134
       133       131       137       139       136       134       137       139
       141       146       148       150       141       146       148       151
       141       146       154       156       141       146       154       157
       143       141       146       148       143       141       146       154
       144       141       146       148       144       141       146       154
       145       141       146       148       145       141       146       154
       146       148       151       153       146       148       151       157
       146       154       157       151       146       154       157       159
       148       146       154       156       148       146       154       157
       148       151       157       154       148       151       157       159
       150       148       146       154       150       148       151       153
       150       148       151       157       151       148       146       154
       151       157       154       156       153       151       157       154
       153       151       157       159       156       154       157       159
       161       166       168       170       161       166       168       171
       161       166       174       176       161       166       174       177
       163       161       166       168       163       161       166       174
       164       161       166       168       164       161       166       174
       165       161       166       168       165       161       166       174
       166       168       171       173       166       168       171       177
       166       174       177       171       166       174       177       179
       168       166       174       176       168       166       174       177
       168       171       177       174       168       171       177       179
       170       168       166       174       170       168       171       173
       170       168       171       177       171       168       166       174
       171       177       174       176       173       171       177       174
       173       171       177       179       176       174       177       179
       181       186       188       190       181       186       188       191
       181       186       194       196       181       186       194       197
       183       181       186       188       183       181       186       194
       184       181       186       188       184       181       186       194
       185       181       186       188       185       181       186       194
       186       188       191       193       186       188       191       197
       186       194       197       191       186       194       197       199
       188       186       194       196       188       186       194       197
       188       191       197       194       188       191       197       199
       190       188       186       194       190       188       191       193
       190       188       191       197       191       188       186       194
       191       197       194       196       193       191       197       194
       193       191       197       199       196       194       197       199
       201       206       208       210       201       206       208       211
       201       206       214       216       201       206       214       217
       203       201       206       208       203       201       206       214
       204       201       206       208       204       201       206       214
       205       201       206       208       205       201       206       214
       206       208       211       213       206       208       211       217
       206       214       217       211       206       214       217       219
       208       206       214       216       208       206       214       217
       208       211       217       214       208       211       217       219
       210       208       206       214       210       208       211       213
       210       208       211       217       211       208       206       214
       211       217       214       216       213       211       217       214
       213       211       217       219       216       214       217       219
       221       226       228       230       221       226       228       231
       221       226       234       236       221       226       234       237
       223       221       226       228       223       221       226       234
       224       221       226       228       224       221       226       234
       225       221       226       228       225       221       226       234
       226       228       231       233       226       228       231       237
       226       234       237       231       226       234       237       239
       228       226       234       236       228       226       234       237
       228       231       237       234       228       231       237       239
       230       228       226       234       230       228       231       233
       230       228       231       237       231       228       226       234
       231       237       234       236       233       231       237       234
       233       231       237       239       236       234       237       239
       241       246       248       250       241       246       248       251
       241       246       254       256       241       246       254       257
       243       241       246       248       243       241       246       254
       244       241       246       248       244       241       246       254
       245       241       246       248       245       241       246       254
       246       248       251       253       246       248       251       257
       246       254       257       251       246       254       257       259
       248       246       254       256       248       246       254       257
       248       251       257       254       248       251       257       259
       250       248       246       254       250       248       251       253
       250       248       251       257       251       248       246       254
       251       257       254       256       253       251       257       254
       253       251       257       259       256       254       257       259
       261       266       268       270       261       266       268       271
       261       266       274       276       261       266       274       277
       263       261       266       268       263       261       266       274
       264       261       266       268       264       261       266       274
       265       261       266       268       265       261       266       274
       266       268       271       273       266       268       271       277
       266       274       277       271       266       274       277       279
       268       266       274       276       268       266       274       277
       268       271       277       274       268       271       277       279
       270       268       266       274       270       268       271       273
       270       268       271       277       271       268       266       274
       271       277       274       276       273       271       277       274
       273       271       277       279       276       274       277       279
       281       286       288       290       281       286       288       291
       281       286       294       296       281       286       294       297
       283       281       286       288       283       281       286       294
       284       281       286       288       284       281       286       294
       285       281       286       288       285       281       286       294
       286       288       291       293       286       288       291       297
       286       294       297       291       286       294       297       299
       288       286       294       296       288       286       294       297
       288       291       297       294       288       291       297       299
       290       288       286       294       290       288       291       293
       290       288       291       297       291       288       286       294
       291       297       294       296       293       291       297       294
       293       291       297       299       296       294       297       299
       301       306       308       310       301       306       308       311
       301       306       314       316       301       306       314       317
       303       301       306       308       303       301       306       314
       304       301       306       308       304       301       306       314
       305       301       306       308       305       301       306       314
       306       308       311       313       306       308       311       317
       306       314       317       311       306       314       317       319
       308       306       314       316       308       306       314       317
       308       311       317       314       308       311       317       319
       310       308       306       314       310       308       311       313
       310       308       311       317       311       308       306       314
       311       317       314       316       313       311       317       314
       313       311       317       319       316       314       317       319
       321       326       328       330       321       326       328       331
       321       326       334       336       321       326       334       337
       323       321       326       328       323       321       326       334
       324       321       326       328       324       321       326       334
       325       321       326       328       325       321       326       334
       326       328       331       333       326       328       331       337
       326       334       337       331       326       334       337       339
       328       326       334       336       328       326       334       337
       328       331       337       334       328       331       337       339
       330       328       326       334       330       328       331       333
       330       328       331       337       331       328       326       334
       331       337       334       336       333       331       337       334
       333       331       337       339       336       334       337       339
       341       346       348       350       341       346       348       351
       341       346       354       356       341       346       354       357
       343       341       346       348       343       341       346       354
       344       341       346       348       344       341       346       354
       345       341       346       348       345       341       346       354
       346       348       351       353       346       348       351       357
       346       354       357       351       346       354       357       359
       348       346       354       356       348       346       354       357
       348       351       357       354       348       351       357       359
       350       348       346       354       350       348       351       353
       350       348       351       357       351       348       346       354
       351       357       354       356       353       351       357       354
       353       351       357       359       356       354       357       359
       361       366       368       370       361       366       368       371
       361       366       374       376       361       366       374       377
       363       361       366       368       363       361       366       374
       364       361       366       368       364       361       366       374
       365       361       366       368       365       361       366       374
       366       368       371       373       366       368       371       377
       366       374       377       371       366       374       377       379
       368       366       374       376       368       366       374       377
       368       371       377       374       368       371       377       379
       370       368       366       374       370       368       371       373
       370       368       371       377       371       368       366       374
       371       377       374       376       373       371       377       374
       373       371       377       379       376       374       377       379
       381       386       388       390       381       386       388       391
       381       386       394       396       381       386       394       397
       383       381       386       388       383       381       386       394
       384       381       386       388       384       381       386       394
       385       381       386       388       385       381       386       394
       386       388       391       393       386       388       391       397
       386       394       397       391       386       394       397       399
       388       386       394       396       388       386       394       397
       388       391       397       394       388       391       397       399
       390       388       386       394       390       388       391       393
       390       388       391       397       391       388       386       394
       391       397       394       396       393       391       397       394
       393       391       397       399       396       394       397       399
       401       406       408       410       401       406       408       411
       401       406       414       416       401       406       414       417
       403       401       406       408       403       401       406       414
       404       401       406       408       404       401       406       414
       405       401       406       408       405       401       406       414
       406       408       411       413       406       408       411       417
       406       414       417       411       406       414       417       419
       408       406       414       416       408       406       414       417
       408       411       417       414       408       411       417       419
       410       408       406       414       410       408       411       413
       410       408       411       417       411       408       406       414
       411       417       414       416       413       411       417       414
       413       411       417       419       416       414       417       419
       421       426       428       430       421       426       428       431
       421       426       434       436       421       426       434       437
       423       421       426       428       423       421       426       434
       424       421       426       428       424       421       426       434
       425       421       426       428       425       421       426       434
       426       428       431       433       426       428       431       437
       426       434       437       431       426       434       437       439
       428       426       434       436       428       426       434       437
       428       431       437       434       428       431       437       439
       430       428       426       434       430       428       431       433
       430       428       431       437       431       428       426       434
       431       437       434       436       433       431       437       434
       433       431       437       439       436       434       437       439
       441       446       448       450       441       446       448       451
       441       446       454       456       441       446       454       457
       443       441       446       448       443       441       446       454
       444       441       446       448       444       441       446       454
       445       441       446       448       445       441       446       454
       446       448       451       453       446       448       451       457
       446       454       457       451       446       454       457       459
       448       446       454       456       448       446       454       457
       448       451       457       454       448       451       457       459
       450       448       446       454       450       448       451       453
       450       448       451       457       451       448       446       454
       451       457       454       456       453       451       457       454
       453       451       457       459       456       454       457       459
       461       466       468       470       461       466       468       471
       461       466       474       476       461       466       474       477
       463       461       466       468       463       461       466       474
       464       461       466       468       464       461       466       474
       465       461       466       468       465       461       466       474
       466       468       471       473       466       468       471       477
       466       474       477       471       466       474       477       479
       468       466       474       476       468       466       474       477
       468       471       477       474       468       471       477       479
       470       468       466       474       470       468       471       473
       470       468       471       477       471       468       466       474
       471       477       474       476       473       471       477       474
       473       471       477       479       476       474       477       479
       481       486       488       490       481       486       488       491
       481       486       494       496       481       486       494       497
       483       481       486       488       483       481       486       494
       484       481       486       488       484       481       486       494
       485       481       486       488       485       481       486       494
       486       488       491       493       486       488       491       497
       486       494       497       491       486       494       497       499
       488       486       494       496       488       486       494       497
       488       491       497       494       488       491       497       499
       490       488       486       494       490       488       491       493
       490       488       491       497       491       488       486       494
       491       497       494       496       493       491       497       494
       493       491       497       499       496       494       497       499
       501       506       508       510       501       506       508       511
       501       506       514       516       501       506       514       517
       503       501       506       508       503       501       506       514
       504       501       506       508       504       501       506       514
       505       501       506       508       505       501       506       514
       506       508       511       513       506       508       511       517
       506       514       517       511       506       514       517       519
       508       506       514       516       508       506       514       517
       508       511       517       514       508       511       517       519
       510       508       506       514       510       508       511       513
       510       508       511       517       511       508       506       514
       511       517       514       516       513       511       517       514
       513       511       517       519       516       514       517       519
       521       526       528       530       521       526       528       531
       521       526       534       536       521       526       534       537
       523       521       526       528       523       521       526       534
       524       521       526       528       524       521       526       534
       525       521       526       528       525       521       526       534
       526       528       531       533       526       528       531       537
       526       534       537       531       526       534       537       539
       528       526       534       536       528       526       534       537
       528       531       537       534       528       531       537       539
       530       528       526       534       530       528       531       533
       530       528       531       537       531       528       526       534
       531       537       534       536       533       531       537       534
       533       531       537       539       536       534       537       539
       541       546       548       550       541       546       548       551
       541       546       554       556       541       546       554       557
       543       541       546       548       543       541       546       554
       544       541       546       548       544       541       546       554
       545       541       546       548       545       541       546       554
       546       548       551       553       546       548       551       557
       546       554       557       551       546       554       557       559
       548       546       554       556       548       546       554       557
       548       551       557       554       548       551       557       559
       550       548       546       554       550       548       551       553
       550       548       551       557       551       548       546       554
       551       557       554       556       553       551       557       554
       553       551       557       559       556       554       557       559
       561       566       568       570       561       566       568       571
       561       566       574       576       561       566       574       577
       563       561       566       568       563       561       566       574
       564       561       566       568       564       561       566       574
       565       561       566       568       565       561       566       574
       566       568       571       573       566       568       571       577
       566       574       577       571       566       574       577       579
       568       566       574       576       568       566       574       577
       568       571       577       574       568       571       577       579
       570       568       566       574       570       568       571       573
       570       568       571       577       571       568       566       574
       571       577       574       576       573       571       577       574
       573       571       577       579       576       574       577       579
       581       586       588       590       581       586       588       591
       581       586       594       596       581       586       594       597
       583       581       586       588       583       581       586       594
       584       581       586       588       584       581       586       594
       585       581       586       588       585       581       586       594
       586       588       591       593       586       588       591       597
       586       594       597       591       586       594       597       599
       588       586       594       596       588       586       594       597
       588       591       597       594       588       591       597       599
       590       588       586       594       590       588       591       593
       590       588       591       597       591       588       586       594
       591       597       594       596       593       591       597       594
       593       591       597       599       596       594       597       599
       601       606       608       610       601       606       608       611
       601       606       614       616       601       606       614       617
       603       601       606       608       603       601       606       614
       604       601       606       608       604       601       606       614
       605       601       606       608       605       601       606       614
       606       608       611       613       606       608       611       617
       606       614       617       611       606       614       617       619
       608       606       614       616       608       606       614       617
       608       611       617       614       608       611       617       619
       610       608       606       614       610       608       611       613
       610       608       611       617       611       608       606       614
       611       617       614       616       613       611       617       614
       613       611       617       619       616       614       617       619
       621       626       628       630       621       626       628       631
       621       626       634       636       621       626       634       637
       623       621       626       628       623       621       626       634
       624       621       626       628       624       621       626       634
       625       621       626       628       625       621       626       634
       626       628       631       633       626       628       631       637
       626       634       637       631       626       634       637       639
       628       626       634       636       628       626       634       637
       628       631       637       634       628       631       637       639
       630       628       626       634       630       628       631       633
       630       628       631       637       631       628       626       634
       631       637       634       636       633       631       637       634
       633       631       637       639       636       634       637       639
       641       646       648       650       641       646       648       651
       641       646       654       656       641       646       654       657
       643       641       646       648       643       641       646       654
       644       641       646       648       644       641       646       654
       645       641       646       648       645       641       646       654
       646       648       651       653       646       648       651       657
       646       654       657       651       646       654       657       659
       648       646       654       656       648       646       654       657
       648       651       657       654       648       651       657       659
       650       648       646       654       650       648       651       653
       650       648       651       657       651       648       646       654
       651       657       654       656       653       651       657       654
       653       651       657       659       656       654       657       659
       661       666       668       670       661       666       668       671
       661       666       674       676       661       666       674       677
       663       661       666       668       663       661       666       674
       664       661       666       668       664       661       666       674
       665       661       666       668       665       661       666       674
       666       668       671       673       666       668       671       677
       666       674       677       671       666       674       677       679
       668       666       674       676       668       666       674       677
       668       671       677       674       668       671       677       679
       670       668       666       674       670       668       671       673
       670       668       671       677       671       668       666       674
       671       677       674       676       673       671       677       674
       673       671       677       679       676       674       677       679
       681       686       688       690       681       686       688       691
       681       686       694       696       681       686       694       697
       683       681       686       688       683       681       686       694
       684       681       686       688       684       681       686       694
       685       681       686       688       685       681       686       694
       686       688       691       693       686       688       691       697
       686       694       697       691       686       694       697       699
       688       686       694       696       688       686       694       697
       688       691       697       694       688       691       697       699
       690       688       686       694       690       688       691       693
       690       688       691       697       691       688       686       694
       691       697       694       696       693       691       697       694
       693       691       697       699       696       694       697       699
       701       706       708       710       701       706       708       711
       701       706       714       716       701       706       714       717
       703       701       706       708       703       701       706       714
       704       701       706       708       704       701       706       714
       705       701       706       708       705       701       706       714
       706       708       711       713       706       708       711       717
       706       714       717       711       706       714       717       719
       708       706       714       716       708       706       714       717
       708       711       717       714       708       711       717       719
       710       708       706       714       710       708       711       713
       710       708       711       717       711       708       706       714
       711       717       714       716       713       711       717       714
       713       711       717       719       716       714       717       719
       721       726       728       730       721       726       728       731
       721       726       734       736       721       726       734       737
       723       721       726       728       723       721       726       734
       724       721       726       728       724       721       726       734
       725       721       726       728       725       721       726       734
       726       728       731       733       726       728       731       737
       726       734       737       731       726       734       737       739
       728       726       734       736       728       726       734       737
       728       731       737       734       728       731       737       739
       730       728       726       734       730       728       731       733
       730       728       731       737       731       728       726       734
       731       737       734       736       733       731       737       734
       733       731       737       739       736       734       737       739
       741       746       748       750       741       746       748       751
       741       746       754       756       741       746       754       757
       743       741       746       748       743       741       746       754
       744       741       746       748       744       741       746       754
       745       741       746       748       745       741       746       754
       746       748       751       753       746       748       751       757
       746       754       757       751       746       754       757       759
       748       746       754       756       748       746       754       757
       748       751       757       754       748       751       757       759
       750       748       746       754       750       748       751       753
       750       748       751       757       751       748       746       754
       751       757       754       756       753       751       757       754
       753       751       757       759       756       754       757       759
       761       766       768       770       761       766       768       771
       761       766       774       776       761       766       774       777
       763       761       766       768       763       761       766       774
       764       761       766       768       764       761       766       774
       765       761       766       768       765       761       766       774
       766       768       771       773       766       768       771       777
       766       774       777       771       766       774       777       779
       768       766       774       776       768       766       774       777
       768       771       777       774       768       771       777       779
       770       768       766       774       770       768       771       773
       770       768       771       777       771       768       766       774
       771       777       774       776       773       771       777       774
       773       771       777       779       776       774       777       779
       781       786       788       790       781       786       788       791
       781       786       794       796       781       786       794       797
       783       781       786       788       783       781       786       794
       784       781       786       788       784       781       786       794
       785       781       786       788       785       781       786       794
       786       788       791       793       786       788       791       797
       786       794       797       791       786       794       797       799
       788       786       794       796       788       786       794       797
       788       791       797       794       788       791       797       799
       790       788       786       794       790       788       791       793
       790       788       791       797       791       788       786       794
       791       797       794       796       793       791       797       794
       793       791       797       799       796       794       797       799
       801       806       808       810       801       806       808       811
       801       806       814       816       801       806       814       817
       803       801       806       808       803       801       806       814
       804       801       806       808       804       801       806       814
       805       801       806       808       805       801       806       814
       806       808       811       813       806       808       811       817
       806       814       817       811       806       814       817       819
       808       806       814       816       808       806       814       817
       808       811       817       814       808       811       817       819
       810       808       806       814       810       808       811       813
       810       808       811       817       811       808       806       814
       811       817       814       816       813       811       817       814
       813       811       817       819       816       814       817       819
       821       826       828       830       821       826       828       831
       821       826       834       836       821       826       834       837
       823       821       826       828       823       821       826       834
       824       821       826       828       824       821       826       834
       825       821       826       828       825       821       826       834
       826       828       831       833       826       828       831       837
       826       834       837       831       826       834       837       839
       828       826       834       836       828       826       834       837
       828       831       837       834       828       831       837       839
       830       828       826       834       830       828       831       833
       830       828       831       837       831       828       826       834
       831       837       834       836       833       831       837       834
       833       831       837       839       836       834       837       839
       841       846       848       850       841       846       848       851
       841       846       854       856       841       846       854       857
       843       841       846       848       843       841       846       854
       844       841       846       848       844       841       846       854
       845       841       846       848       845       841       846       854
       846       848       851       853       846       848       851       857
       846       854       857       851       846       854       857       859
       848       846       854       856       848       846       854       857
       848       851       857       854       848       851       857       859
       850       848       846       854       850       848       851       853
       850       848       851       857       851       848       846       854
       851       857       854       856       853       851       857       854
       853       851       857       859       856       854       857       859
       861       866       868       870       861       866       868       871
       861       866       874       876       861       866       874       877
       863       861       866       868       863       861       866       874
       864       861       866       868       864       861       866       874
       865       861       866       868       865       861       866       874
       866       868       871       873       866       868       871       877
       866       874       877       871       866       874       877       879
       868       866       874       876       868       866       874       877
       868       871       877       874       868       871       877       879
       870       868       866       874       870       868       871       873
       870       868       871       877       871       868       866       874
       871       877       874       876       873       871       877       874
       873       871       877       879       876       874       877       879
       881       886       888       890       881       886       888       891
       881       886       894       896       881       886       894       897
       883       881       886       888       883       881       886       894
       884       881       886       888       884       881       886       894
       885       881       886       888       885       881       886       894
       886       888       891       893       886       888       891       897
       886       894       897       891       886       894       897       899
       888       886       894       896       888       886       894       897
       888       891       897       894       888       891       897       899
       890       888       886       894       890       888       891       893
       890       888       891       897       891       888       886       894
       891       897       894       896       893       891       897       894
       893       891       897       899       896       894       897       899
       901       906       908       910       901       906       908       911
       901       906       914       916       901       906       914       917
       903       901       906       908       903       901       906       914
       904       901       906       908       904       901       906       914
       905       901       906       908       905       901       906       914
       906       908       911       913       906       908       911       917
       906       914       917       911       906       914       917       919
       908       906       914       916       908       906       914       917
       908       911       917       914       908       911       917       919
       910       908       906       914       910       908       911       913
       910       908       911       917       911       908       906       914
       911       917       914       916       913       911       917       914
       913       911       917       919       916       914       917       919
       921       926       928       930       921       926       928       931
       921       926       934       936       921       926       934       937
       923       921       926       928       923       921       926       934
       924       921       926       928       924       921       926       934
       925       921       926       928       925       921       926       934
       926       928       931       933       926       928       931       937
       926       934       937       931       926       934       937       939
       928       926       934       936       928       926       934       937
       928       931       937       934       928       931       937       939
       930       928       926       934       930       928       931       933
       930       928       931       937       931       928       926       934
       931       937       934       936       933       931       937       934
       933       931       937       939       936       934       937       939
       941       946       948       950       941       946       948       951
       941       946       954       956       941       946       954       957
       943       941       946       948       943       941       946       954
       944       941       946       948       944       941       946       954
       945       941       946       948       945       941       946       954
       946       948       951       953       946       948       951       957
       946       954       957       951       946       954       957       959
       948       946       954       956       948       946       954       957
       948       951       957       954       948       951       957       959
       950       948       946       954       950       948       951       953
       950       948       951       957       951       948       946       954
       951       957       954       956       953       951       957       954
       953       951       957       959       956       954       957       959
       961       966       968       970       961       966       968       971
       961       966       974       976       961       966       974       977
       963       961       966       968       963       961       966       974
       964       961       966       968       964       961       966       974
       965       961       966       968       965       961       966       974
       966       968       971       973       966       968       971       977
       966       974       977       971       966       974       977       979
       968       966       974       976       968       966       974       977
       968       971       977       974       968       971       977       979
       970       968       966       974       970       968       971       973
       970       968       971       977       971       968       966       974
       971       977       974       976       973       971       977       974
       973       971       977       979       976       974       977       979
       981       986       988       990       981       986       988       991
       981       986       994       996       981       986       994       997
       983       981       986       988       983       981       986       994
       984       981       986       988       984       981       986       994
       985       981       986       988       985       981       986       994
       986       988       991       993       986       988       991       997
       986       994       997       991       986       994       997       999
       988       986       994       996       988       986       994       997
       988       991       997       994       988       991       997       999
       990       988       986       994       990       988       991       993
       990       988       991       997       991       988       986       994
       991       997       994       996       993       991       997       994
       993       991       997       999       996       994       997       999
      1001      1006      1008      1010      1001      1006      1008      1011
      1001      1006      1014      1016      1001      1006      1014      1017
      1003      1001      1006      1008      1003      1001      1006      1014
      1004      1001      1006      1008      1004      1001      1006      1014
      1005      1001      1006      1008      1005      1001      1006      1014
      1006      1008      1011      1013      1006      1008      1011      1017
      1006      1014      1017      1011      1006      1014      1017      1019
      1008      1006      1014      1016      1008      1006      1014      1017
      1008      1011      1017      1014      1008      1011      1017      1019
      1010      1008      1006      1014      1010      1008      1011      1013
      1010      1008      1011      1017      1011      1008      1006      1014
      1011      1017      1014      1016      1013      1011      1017      1014
      1013      1011      1017      1019      1016      1014      1017      1019
      1021      1026      1028      1030      1021      1026      1028      1031
      1021      1026      1034      1036      1021      1026      1034      1037
      1023      1021      1026      1028      1023      1021      1026      1034
      1024      1021      1026      1028      1024      1021      1026      1034
      1025      1021      1026      1028      1025      1021      1026      1034
      1026      1028      1031      1033      1026      1028      1031      1037
      1026      1034      1037      1031      1026      1034      1037      1039
      1028      1026      1034      1036      1028      1026      1034      1037
      1028      1031      1037      1034      1028      1031      1037      1039
      1030      1028      1026      1034      1030      1028      1031      1033
      1030      1028      1031      1037      1031      1028      1026      1034
      1031      1037      1034      1036      1033      1031      1037      1034
      1033      1031      1037      1039      1036      1034      1037      1039
      1041      1046      1048      1050      1041      1046      1048      1051
      1041      1046      1054      1056      1041      1046      1054      1057
      1043      1041      1046      1048      1043      1041      1046      1054
      1044      1041      1046      1048      1044      1041      1046      1054
      1045      1041      1046      1048      1045      1041      1046      1054
      1046      1048      1051      1053      1046      1048      1051      1057
      1046      1054      1057      1051      1046      1054      1057      1059
      1048      1046      1054      1056      1048      1046      1054      1057
      1048      1051      1057      1054      1048      1051      1057      1059
      1050      1048      1046      1054      1050      1048      1051      1053
      1050      1048      1051      1057      1051      1048      1046      1054
      1051      1057      1054      1056      1053      1051      1057      1054
      1053      1051      1057      1059      1056      1054      1057      1059
      1061      1066      1068      1070      1061      1066      1068      1071
      1061      1066      1074      1076      1061      1066      1074      1077
      1063      1061      1066      1068      1063      1061      1066      1074
      1064      1061      1066      1068      1064      1061      1066      1074
      1065      1061      1066      1068      1065      1061      1066      1074
      1066      1068      1071      1073      1066      1068      1071      1077
      1066      1074      1077      1071      1066      1074      1077      1079
      1068      1066      1074      1076      1068      1066      1074      1077
      1068      1071      1077      1074      1068      1071      1077      1079
      1070      1068      1066      1074      1070      1068      1071      1073
      1070      1068      1071      1077      1071      1068      1066      1074
      1071      1077      1074      1076      1073      1071      1077      1074
      1073      1071      1077      1079      1076      1074      1077      1079
      1081      1086      1088      1090      1081      1086      1088      1091
      1081      1086      1094      1096      1081      1086      1094      1097
      1083      1081      1086      1088      1083      1081      1086      1094
      1084      1081      1086      1088      1084      1081      1086      1094
      1085      1081      1086      1088      1085      1081      1086      1094
      1086      1088      1091      1093      1086      1088      1091      1097
      1086      1094      1097      1091      1086      1094      1097      1099
      1088      1086      1094      1096      1088      1086      1094      1097
      1088      1091      1097      1094      1088      1091      1097      1099
      1090      1088      1086      1094      1090      1088      1091      1093
      1090      1088      1091      1097      1091      1088      1086      1094
      1091      1097      1094      1096      1093      1091      1097      1094
      1093      1091      1097      1099      1096      1094      1097      1099
      1101      1106      1108      1110      1101      1106      1108      1111
      1101      1106      1114      1116      1101      1106      1114      1117
      1103      1101      1106      1108      1103      1101      1106      1114
      1104      1101      1106      1108      1104      1101      1106      1114
      1105      1101      1106      1108      1105      1101      1106      1114
      1106      1108      1111      1113      1106      1108      1111      1117
      1106      1114      1117      1111      1106      1114      1117      1119
      1108      1106      1114      1116      1108      1106      1114      1117
      1108      1111      1117      1114      1108      1111      1117      1119
      1110      1108      1106      1114      1110      1108      1111      1113
      1110      1108      1111      1117      1111      1108      1106      1114
      1111      1117      1114      1116      1113      1111      1117      1114
      1113      1111      1117      1119      1116      1114      1117      1119
      1121      1126      1128      1130      1121      1126      1128      1131
      1121      1126      1134      1136      1121      1126      1134      1137
      1123      1121      1126      1128      1123      1121      1126      1134
      1124      1121      1126      1128      1124      1121      1126      1134
      1125      1121      1126      1128      1125      1121      1126      1134
      1126      1128      1131      1133      1126      1128      1131      1137
      1126      1134      1137      1131      1126      1134      1137      1139
      1128      1126      1134      1136      1128      1126      1134      1137
      1128      1131      1137      1134      1128      1131      1137      1139
      1130      1128      1126      1134      1130      1128      1131      1133
      1130      1128      1131      1137      1131      1128      1126      1134
      1131      1137      1134      1136      1133      1131      1137      1134
      1133      1131      1137      1139      1136      1134      1137      1139
      1141      1146      1148      1150      1141      1146      1148      1151
      1141      1146      1154      1156      1141      1146      1154      1157
      1143      1141      1146      1148      1143      1141      1146      1154
      1144      1141      1146      1148      1144      1141      1146      1154
      1145      1141      1146      1148      1145      1141      1146      1154
      1146      1148      1151      1153      1146      1148      1151      1157
      1146      1154      1157      1151      1146      1154      1157      1159
      1148      1146      1154      1156      1148      1146      1154      1157
      1148      1151      1157      1154      1148      1151      1157      1159
      1150      1148      1146      1154      1150      1148      1151      1153
      1150      1148      1151      1157      1151      1148      1146      1154
      1151      1157      1154      1156      1153      1151      1157      1154
      1153      1151      1157      1159      1156      1154      1157      1159
      1161      1166      1168      1170      1161      1166      1168      1171
      1161      1166      1174      1176      1161      1166      1174      1177
      1163      1161      1166      1168      1163      1161      1166      1174
      1164      1161      1166      1168      1164      1161      1166      1174
      1165      1161      1166      1168      1165      1161      1166      1174
      1166      1168      1171      1173      1166      1168      1171      1177
      1166      1174      1177      1171      1166      1174      1177      1179
      1168      1166      1174      1176      1168      1166      1174      1177
      1168      1171      1177      1174      1168      1171      1177      1179
      1170      1168      1166      1174      1170      1168      1171      1173
      1170      1168      1171      1177      1171      1168      1166      1174
      1171      1177      1174      1176      1173      1171      1177      1174
      1173      1171      1177      1179      1176      1174      1177      1179
      1181      1186      1188      1190      1181      1186      1188      1191
      1181      1186      1194      1196      1181      1186      1194      1197
      1183      1181      1186      1188      1183      1181      1186      1194
      1184      1181      1186      1188      1184      1181      1186      1194
      1185      1181      1186      1188      1185      1181      1186      1194
      1186      1188      1191      1193      1186      1188      1191      1197
      1186      1194      1197      1191      1186      1194      1197      1199
      1188      1186      1194      1196      1188      1186      1194      1197
      1188      1191      1197      1194      1188      1191      1197      1199
      1190      1188      1186      1194      1190      1188      1191      1193
      1190      1188      1191      1197      1191      1188      1186      1194
      1191      1197      1194      1196      1193      1191      1197      1194
      1193      1191      1197      1199      1196      1194      1197      1199
      1201      1206      1208      1210      1201      1206      1208      1211
      1201      1206      1214      1216      1201      1206      1214      1217
      1203      1201      1206      1208      1203      1201      1206      1214
      1204      1201      1206      1208      1204      1201      1206      1214
      1205      1201      1206      1208      1205      1201      1206      1214
      1206      1208      1211      1213      1206      1208      1211      1217
      1206      1214      1217      1211      1206      1214      1217      1219
      1208      1206      1214      1216      1208      1206      1214      1217
      1208      1211      1217      1214      1208      1211      1217      1219
      1210      1208      1206      1214      1210      1208      1211      1213
      1210      1208      1211      1217      1211      1208      1206      1214
      1211      1217      1214      1216      1213      1211      1217      1214
      1213      1211      1217      1219      1216      1214      1217      1219
      1221      1226      1228      1230      1221      1226      1228      1231
      1221      1226      1234      1236      1221      1226      1234      1237
      1223      1221      1226      1228      1223      1221      1226      1234
      1224      1221      1226      1228      1224      1221      1226      1234
      1225      1221      1226      1228      1225      1221      1226      1234
      1226      1228      1231      1233      1226      1228      1231      1237
      1226      1234      1237      1231      1226      1234      1237      1239
      1228      1226      1234      1236      1228      1226      1234      1237
      1228      1231      1237      1234      1228      1231      1237      1239
      1230      1228      1226      1234      1230      1228      1231      1233
      1230      1228      1231      1237      1231      1228      1226      1234
      1231      1237      1234      1236      1233      1231      1237      1234
      1233      1231      1237      1239      1236      1234      1237      1239
      1241      1246      1248      1250      1241      1246      1248      1251
      1241      1246      1254      1256      1241      1246      1254      1257
      1243      1241      1246      1248      1243      1241      1246      1254
      1244      1241      1246      1248      1244      1241      1246      1254
      1245      1241      1246      1248      1245      1241      1246      1254
      1246      1248      1251      1253      1246      1248      1251      1257
      1246      1254      1257      1251      1246      1254      1257      1259
      1248      1246      1254      1256      1248      1246      1254      1257
      1248      1251      1257      1254      1248      1251      1257      1259
      1250      1248      1246      1254      1250      1248      1251      1253
      1250      1248      1251      1257      1251      1248      1246      1254
      1251      1257      1254      1256      1253      1251      1257      1254
      1253      1251      1257      1259      1256      1254      1257      1259
      1261      1266      1268      1270      1261      1266      1268      1271
      1261      1266      1274      1276      1261      1266      1274      1277
      1263      1261      1266      1268      1263      1261      1266      1274
      1264      1261      1266      1268      1264      1261      1266      1274
      1265      1261      1266      1268      1265      1261      1266      1274
      1266      1268      1271      1273      1266      1268      1271      1277
      1266      1274      1277      1271      1266      1274      1277      1279
      1268      1266      1274      1276      1268      1266      1274      1277
      1268      1271      1277      1274      1268      1271      1277      1279
      1270      1268      1266      1274      1270      1268      1271      1273
      1270      1268      1271      1277      1271      1268      1266      1274
      1271      1277      1274      1276      1273      1271      1277      1274
      1273      1271      1277      1279      1276      1274      1277      1279
      1281      1286      1288      1290      1281      1286      1288      1291
      1281      1286      1294      1296      1281      1286      1294      1297
      1283      1281      1286      1288      1283      1281      1286      1294
      1284      1281      1286      1288      1284      1281      1286      1294
      1285      1281      1286      1288      1285      1281      1286      1294
      1286      1288      1291      1293      1286      1288      1291      1297
      1286      1294      1297      1291      1286      1294      1297      1299
      1288      1286      1294      1296      1288      1286      1294      1297
      1288      1291      1297      1294      1288      1291      1297      1299
      1290      1288      1286      1294      1290      1288      1291      1293
      1290      1288      1291      1297      1291      1288      1286      1294
      1291      1297      1294      1296      1293      1291      1297      1294
      1293      1291      1297      1299      1296      1294      1297      1299
      1301      1306      1308      1310      1301      1306      1308      1311
      1301      1306      1314      1316      1301      1306      1314      1317
      1303      1301      1306      1308      1303      1301      1306      1314
      1304      1301      1306      1308      1304      1301      1306      1314
      1305      1301      1306      1308      1305      1301      1306      1314
      1306      1308      1311      1313      1306      1308      1311      1317
      1306      1314      1317      1311      1306      1314      1317      1319
      1308      1306      1314      1316      1308      1306      1314      1317
      1308      1311      1317      1314      1308      1311      1317      1319
      1310      1308      1306      1314      1310      1308      1311      1313
      1310      1308      1311      1317      1311      1308      1306      1314
      1311      1317      1314      1316      1313      1311      1317      1314
      1313      1311      1317      1319      1316      1314      1317      1319
      1321      1326      1328      1330      1321      1326      1328      1331
      1321      1326      1334      1336      1321      1326      1334      1337
      1323      1321      1326      1328      1323      1321      1326      1334
      1324      1321      1326      1328      1324      1321      1326      1334
      1325      1321      1326      1328      1325      1321      1326      1334
      1326      1328      1331      1333      1326      1328      1331      1337
      1326      1334      1337      1331      1326      1334      1337      1339
      1328      1326      1334      1336      1328      1326      1334      1337
      1328      1331      1337      1334      1328      1331      1337      1339
      1330      1328      1326      1334      1330      1328      1331      1333
      1330      1328      1331      1337      1331      1328      1326      1334
      1331      1337      1334      1336      1333      1331      1337      1334
      1333      1331      1337      1339      1336      1334      1337      1339
      1341      1346      1348      1350      1341      1346      1348      1351
      1341      1346      1354      1356      1341      1346      1354      1357
      1343      1341      1346      1348      1343      1341      1346      1354
      1344      1341      1346      1348      1344      1341      1346      1354
      1345      1341      1346      1348      1345      1341      1346      1354
      1346      1348      1351      1353      1346      1348      1351      1357
      1346      1354      1357      1351      1346      1354      1357      1359
      1348      1346      1354      1356      1348      1346      1354      1357
      1348      1351      1357      1354      1348      1351      1357      1359
      1350      1348      1346      1354      1350      1348      1351      1353
      1350      1348      1351      1357      1351      1348      1346      1354
      1351      1357      1354      1356      1353      1351      1357      1354
      1353      1351      1357      1359      1356      1354      1357      1359
      1361      1366      1368      1370      1361      1366      1368      1371
      1361      1366      1374      1376      1361      1366      1374      1377
      1363      1361      1366      1368      1363      1361      1366      1374
      1364      1361      1366      1368      1364      1361      1366      1374
      1365      1361      1366      1368      1365      1361      1366      1374
      1366      1368      1371      1373      1366      1368      1371      1377
      1366      1374      1377      1371      1366      1374      1377      1379
      1368      1366      1374      1376      1368      1366      1374      1377
      1368      1371      1377      1374      1368      1371      1377      1379
      1370      1368      1366      1374      1370      1368      1371      1373
      1370      1368      1371      1377      1371      1368      1366      1374
      1371      1377      1374      1376      1373      1371      1377      1374
      1373      1371      1377      1379      1376      1374      1377      1379
      1381      1386      1388      1390      1381      1386      1388      1391
      1381      1386      1394      1396      1381      1386      1394      1397
      1383      1381      1386      1388      1383      1381      1386      1394
      1384      1381      1386      1388      1384      1381      1386      1394
      1385      1381      1386      1388      1385      1381      1386      1394
      1386      1388      1391      1393      1386      1388      1391      1397
      1386      1394      1397      1391      1386      1394      1397      1399
      1388      1386      1394      1396      1388      1386      1394      1397
      1388      1391      1397      1394      1388      1391      1397      1399
      1390      1388      1386      1394      1390      1388      1391      1393
      1390      1388      1391      1397      1391      1388      1386      1394
      1391      1397      1394      1396      1393      1391      1397      1394
      1393      1391      1397      1399      1396      1394      1397      1399
      1401      1406      1408      1410      1401      1406      1408      1411
      1401      1406      1414      1416      1401      1406      1414      1417
      1403      1401      1406      1408      1403      1401      1406      1414
      1404      1401      1406      1408      1404      1401      1406      1414
      1405      1401      1406      1408      1405      1401      1406      1414
      1406      1408      1411      1413      1406      1408      1411      1417
      1406      1414      1417      1411      1406      1414      1417      1419
      1408      1406      1414      1416      1408      1406      1414      1417
      1408      1411      1417      1414      1408      1411      1417      1419
      1410      1408      1406      1414      1410      1408      1411      1413
      1410      1408      1411      1417      1411      1408      1406      1414
      1411      1417      1414      1416      1413      1411      1417      1414
      1413      1411      1417      1419      1416      1414      1417      1419
      1421      1426      1428      1430      1421      1426      1428      1431
      1421      1426      1434      1436      1421      1426      1434      1437
      1423      1421      1426      1428      1423      1421      1426      1434
      1424      1421      1426      1428      1424      1421      1426      1434
      1425      1421      1426      1428      1425      1421      1426      1434
      1426      1428      1431      1433      1426      1428      1431      1437
      1426      1434      1437      1431      1426      1434      1437      1439
      1428      1426      1434      1436      1428      1426      1434      1437
      1428      1431      1437      1434      1428      1431      1437      1439
      1430      1428      1426      1434      1430      1428      1431      1433
      1430      1428      1431      1437      1431      1428      1426      1434
      1431      1437      1434      1436      1433      1431      1437      1434
      1433      1431      1437      1439      1436      1434      1437      1439
      1441      1446      1448      1450      1441      1446      1448      1451
      1441      1446      1454      1456      1441      1446      1454      1457
      1443      1441      1446      1448      1443      1441      1446      1454
      1444      1441      1446      1448      1444      1441      1446      1454
      1445      1441      1446      1448      1445      1441      1446      1454
      1446      1448      1451      1453      1446      1448      1451      1457
      1446      1454      1457      1451      1446      1454      1457      1459
      1448      1446      1454      1456      1448      1446      1454      1457
      1448      1451      1457      1454      1448      1451      1457      1459
      1450      1448      1446      1454      1450      1448      1451      1453
      1450      1448      1451      1457      1451      1448      1446      1454
      1451      1457      1454      1456      1453      1451      1457      1454
      1453      1451      1457      1459      1456      1454      1457      1459
      1461      1466      1468      1470      1461      1466      1468      1471
      1461      1466      1474      1476      1461      1466      1474      1477
      1463      1461      1466      1468      1463      1461      1466      1474
      1464      1461      1466      1468      1464      1461      1466      1474
      1465      1461      1466      1468      1465      1461      1466      1474
      1466      1468      1471      1473      1466      1468      1471      1477
      1466      1474      1477      1471      1466      1474      1477      1479
      1468      1466      1474      1476      1468      1466      1474      1477
      1468      1471      1477      1474      1468      1471      1477      1479
      1470      1468      1466      1474      1470      1468      1471      1473
      1470      1468      1471      1477      1471      1468      1466      1474
      1471      1477      1474      1476      1473      1471      1477      1474
      1473      1471      1477      1479      1476      1474      1477      1479
      1481      1486      1488      1490      1481      1486      1488      1491
      1481      1486      1494      1496      1481      1486      1494      1497
      1483      1481      1486      1488      1483      1481      1486      1494
      1484      1481      1486      1488      1484      1481      1486      1494
      1485      1481      1486      1488      1485      1481      1486      1494
      1486      1488      1491      1493      1486      1488      1491      1497
      1486      1494      1497      1491      1486      1494      1497      1499
      1488      1486      1494      1496      1488      1486      1494      1497
      1488      1491      1497      1494      1488      1491      1497      1499
      1490      1488      1486      1494      1490      1488      1491      1493
      1490      1488      1491      1497      1491      1488      1486      1494
      1491      1497      1494      1496      1493      1491      1497      1494
      1493      1491      1497      1499      1496      1494      1497      1499
      1501      1506      1508      1510      1501      1506      1508      1511
      1501      1506      1514      1516      1501      1506      1514      1517
      1503      1501      1506      1508      1503      1501      1506      1514
      1504      1501      1506      1508      1504      1501      1506      1514
      1505      1501      1506      1508      1505      1501      1506      1514
      1506      1508      1511      1513      1506      1508      1511      1517
      1506      1514      1517      1511      1506      1514      1517      1519
      1508      1506      1514      1516      1508      1506      1514      1517
      1508      1511      1517      1514      1508      1511      1517      1519
      1510      1508      1506      1514      1510      1508      1511      1513
      1510      1508      1511      1517      1511      1508      1506      1514
      1511      1517      1514      1516      1513      1511      1517      1514
      1513      1511      1517      1519      1516      1514      1517      1519
      1521      1526      1528      1530      1521      1526      1528      1531
      1521      1526      1534      1536      1521      1526      1534      1537
      1523      1521      1526      1528      1523      1521      1526      1534
      1524      1521      1526      1528      1524      1521      1526      1534
      1525      1521      1526      1528      1525      1521      1526      1534
      1526      1528      1531      1533      1526      1528      1531      1537
      1526      1534      1537      1531      1526      1534      1537      1539
      1528      1526      1534      1536      1528      1526      1534      1537
      1528      1531      1537      1534      1528      1531      1537      1539
      1530      1528      1526      1534      1530      1528      1531      1533
      1530      1528      1531      1537      1531      1528      1526      1534
      1531      1537      1534      1536      1533      1531      1537      1534
      1533      1531      1537      1539      1536      1534      1537      1539
      1541      1546      1548      1550      1541      1546      1548      1551
      1541      1546      1554      1556      1541      1546      1554      1557
      1543      1541      1546      1548      1543      1541      1546      1554
      1544      1541      1546      1548      1544      1541      1546      1554
      1545      1541      1546      1548      1545      1541      1546      1554
      1546      1548      1551      1553      1546      1548      1551      1557
      1546      1554      1557      1551      1546      1554      1557      1559
      1548      1546      1554      1556      1548      1546      1554      1557
      1548      1551      1557      1554      1548      1551      1557      1559
      1550      1548      1546      1554      1550      1548      1551      1553
      1550      1548      1551      1557      1551      1548      1546      1554
      1551      1557      1554      1556      1553      1551      1557      1554
      1553      1551      1557      1559      1556      1554      1557      1559
      1561      1566      1568      1570      1561      1566      1568      1571
      1561      1566      1574      1576      1561      1566      1574      1577
      1563      1561      1566      1568      1563      1561      1566      1574
      1564      1561      1566      1568      1564      1561      1566      1574
      1565      1561      1566      1568      1565      1561      1566      1574
      1566      1568      1571      1573      1566      1568      1571      1577
      1566      1574      1577      1571      1566      1574      1577      1579
      1568      1566      1574      1576      1568      1566      1574      1577
      1568      1571      1577      1574      1568      1571      1577      1579
      1570      1568      1566      1574      1570      1568      1571      1573
      1570      1568      1571      1577      1571      1568      1566      1574
      1571      1577      1574      1576      1573      1571      1577      1574
      1573      1571      1577      1579      1576      1574      1577      1579
      1581      1586      1588      1590      1581      1586      1588      1591
      1581      1586      1594      1596      1581      1586      1594      1597
      1583      1581      1586      1588      1583      1581      1586      1594
      1584      1581      1586      1588      1584      1581      1586      1594
      1585      1581      1586      1588      1585      1581      1586      1594
      1586      1588      1591      1593      1586      1588      1591      1597
      1586      1594      1597      1591      1586      1594      1597      1599
      1588      1586      1594      1596      1588      1586      1594      1597
      1588      1591      1597      1594      1588      1591      1597      1599
      1590      1588      1586      1594      1590      1588      1591      1593
      1590      1588      1591      1597      1591      1588      1586      1594
      1591      1597      1594      1596      1593      1591      1597      1594
      1593      1591      1597      1599      1596      1594      1597      1599
      1601      1606      1608      1610      1601      1606      1608      1611
      1601      1606      1614      1616      1601      1606      1614      1617
      1603      1601      1606      1608      1603      1601      1606      1614
      1604      1601      1606      1608      1604      1601      1606      1614
      1605      1601      1606      1608      1605      1601      1606      1614
      1606      1608      1611      1613      1606      1608      1611      1617
      1606      1614      1617      1611      1606      1614      1617      1619
      1608      1606      1614      1616      1608      1606      1614      1617
      1608      1611      1617      1614      1608      1611      1617      1619
      1610      1608      1606      1614      1610      1608      1611      1613
      1610      1608      1611      1617      1611      1608      1606      1614
      1611      1617      1614      1616      1613      1611      1617      1614
      1613      1611      1617      1619      1616      1614      1617      1619
      1621      1626      1628      1630      1621      1626      1628      1631
      1621      1626      1634      1636      1621      1626      1634      1637
      1623      1621      1626      1628      1623      1621      1626      1634
      1624      1621      1626      1628      1624      1621      1626      1634
      1625      1621      1626      1628      1625      1621      1626      1634
      1626      1628      1631      1633      1626      1628      1631      1637
      1626      1634      1637      1631      1626      1634      1637      1639
      1628      1626      1634      1636      1628      1626      1634      1637
      1628      1631      1637      1634      1628      1631      1637      1639
      1630      1628      1626      1634      1630      1628      1631      1633
      1630      1628      1631      1637      1631      1628      1626      1634
      1631      1637      1634      1636      1633      1631      1637      1634
      1633      1631      1637      1639      1636      1634      1637      1639
      1641      1646      1648      1650      1641      1646      1648      1651
      1641      1646      1654      1656      1641      1646      1654      1657
      1643      1641      1646      1648      1643      1641      1646      1654
      1644      1641      1646      1648      1644      1641      1646      1654
      1645      1641      1646      1648      1645      1641      1646      1654
      1646      1648      1651      1653      1646      1648      1651      1657
      1646      1654      1657      1651      1646      1654      1657      1659
      1648      1646      1654      1656      1648      1646      1654      1657
      1648      1651      1657      1654      1648      1651      1657      1659
      1650      1648      1646      1654      1650      1648      1651      1653
      1650      1648      1651      1657      1651      1648      1646      1654
      1651      1657      1654      1656      1653      1651      1657      1654
      1653      1651      1657      1659      1656      1654      1657      1659
      1661      1666      1668      1670      1661      1666      1668      1671
      1661      1666      1674      1676      1661      1666      1674      1677
      1663      1661      1666      1668      1663      1661      1666      1674
      1664      1661      1666      1668      1664      1661      1666      1674
      1665      1661      1666      1668      1665      1661      1666      1674
      1666      1668      1671      1673      1666      1668      1671      1677
      1666      1674      1677      1671      1666      1674      1677      1679
      1668      1666      1674      1676      1668      1666      1674      1677
      1668      1671      1677      1674      1668      1671      1677      1679
      1670      1668      1666      1674      1670      1668      1671      1673
      1670      1668      1671      1677      1671      1668      1666      1674
      1671      1677      1674      1676      1673      1671      1677      1674
      1673      1671      1677      1679      1676      1674      1677      1679
      1681      1686      1688      1690      1681      1686      1688      1691
      1681      1686      1694      1696      1681      1686      1694      1697
      1683      1681      1686      1688      1683      1681      1686      1694
      1684      1681      1686      1688      1684      1681      1686      1694
      1685      1681      1686      1688      1685      1681      1686      1694
      1686      1688      1691      1693      1686      1688      1691      1697
      1686      1694      1697      1691      1686      1694      1697      1699
      1688      1686      1694      1696      1688      1686      1694      1697
      1688      1691      1697      1694      1688      1691      1697      1699
      1690      1688      1686      1694      1690      1688      1691      1693
      1690      1688      1691      1697      1691      1688      1686      1694
      1691      1697      1694      1696      1693      1691      1697      1694
      1693      1691      1697      1699      1696      1694      1697      1699
      1701      1706      1708      1710      1701      1706      1708      1711
      1701      1706      1714      1716      1701      1706      1714      1717
      1703      1701      1706      1708      1703      1701      1706      1714
      1704      1701      1706      1708      1704      1701      1706      1714
      1705      1701      1706      1708      1705      1701      1706      1714
      1706      1708      1711      1713      1706      1708      1711      1717
      1706      1714      1717      1711      1706      1714      1717      1719
      1708      1706      1714      1716      1708      1706      1714      1717
      1708      1711      1717      1714      1708      1711      1717      1719
      1710      1708      1706      1714      1710      1708      1711      1713
      1710      1708      1711      1717      1711      1708      1706      1714
      1711      1717      1714      1716      1713      1711      1717      1714
      1713      1711      1717      1719      1716      1714      1717      1719
      1721      1726      1728      1730      1721      1726      1728      1731
      1721      1726      1734      1736      1721      1726      1734      1737
      1723      1721      1726      1728      1723      1721      1726      1734
      1724      1721      1726      1728      1724      1721      1726      1734
      1725      1721      1726      1728      1725      1721      1726      1734
      1726      1728      1731      1733      1726      1728      1731      1737
      1726      1734      1737      1731      1726      1734      1737      1739
      1728      1726      1734      1736      1728      1726      1734      1737
      1728      1731      1737      1734      1728      1731      1737      1739
      1730      1728      1726      1734      1730      1728      1731      1733
      1730      1728      1731      1737      1731      1728      1726      1734
      1731      1737      1734      1736      1733      1731      1737      1734
      1733      1731      1737      1739      1736      1734      1737      1739
      1741      1746      1748      1750      1741      1746      1748      1751
      1741      1746      1754      1756      1741      1746      1754      1757
      1743      1741      1746      1748      1743      1741      1746      1754
      1744      1741      1746      1748      1744      1741      1746      1754
      1745      1741      1746      1748      1745      1741      1746      1754
      1746      1748      1751      1753      1746      1748      1751      1757
      1746      1754      1757      1751      1746      1754      1757      1759
      1748      1746      1754      1756      1748      1746      1754      1757
      1748      1751      1757      1754      1748      1751      1757      1759
      1750      1748      1746      1754      1750      1748      1751      1753
      1750      1748      1751      1757      1751      1748      1746      1754
      1751      1757      1754      1756      1753      1751      1757      1754
      1753      1751      1757      1759      1756      1754      1757      1759
      1761      1766      1768      1770      1761      1766      1768      1771
      1761      1766      1774      1776      1761      1766      1774      1777
      1763      1761      1766      1768      1763      1761      1766      1774
      1764      1761      1766      1768      1764      1761      1766      1774
      1765      1761      1766      1768      1765      1761      1766      1774
      1766      1768      1771      1773      1766      1768      1771      1777
      1766      1774      1777      1771      1766      1774      1777      1779
      1768      1766      1774      1776      1768      1766      1774      1777
      1768      1771      1777      1774      1768      1771      1777      1779
      1770      1768      1766      1774      1770      1768      1771      1773
      1770      1768      1771      1777      1771      1768      1766      1774
      1771      1777      1774      1776      1773      1771      1777      1774
      1773      1771      1777      1779      1776      1774      1777      1779
      1781      1786      1788      1790      1781      1786      1788      1791
      1781      1786      1794      1796      1781      1786      1794      1797
      1783      1781      1786      1788      1783      1781      1786      1794
      1784      1781      1786      1788      1784      1781      1786      1794
      1785      1781      1786      1788      1785      1781      1786      1794
      1786      1788      1791      1793      1786      1788      1791      1797
      1786      1794      1797      1791      1786      1794      1797      1799
      1788      1786      1794      1796      1788      1786      1794      1797
      1788      1791      1797      1794      1788      1791      1797      1799
      1790      1788      1786      1794      1790      1788      1791      1793
      1790      1788      1791      1797      1791      1788      1786      1794
      1791      1797      1794      1796      1793      1791      1797      1794
      1793      1791      1797      1799      1796      1794      1797      1799
      1801      1806      1808      1810      1801      1806      1808      1811
      1801      1806      1814      1816      1801      1806      1814      1817
      1803      1801      1806      1808      1803      1801      1806      1814
      1804      1801      1806      1808      1804      1801      1806      1814
      1805      1801      1806      1808      1805      1801      1806      1814
      1806      1808      1811      1813      1806      1808      1811      1817
      1806      1814      1817      1811      1806      1814      1817      1819
      1808      1806      1814      1816      1808      1806      1814      1817
      1808      1811      1817      1814      1808      1811      1817      1819
      1810      1808      1806      1814      1810      1808      1811      1813
      1810      1808      1811      1817      1811      1808      1806      1814
      1811      1817      1814      1816      1813      1811      1817      1814
      1813      1811      1817      1819      1816      1814      1817      1819
      1821      1826      1828      1830      1821      1826      1828      1831
      1821      1826      1834      1836      1821      1826      1834      1837
      1823      1821      1826      1828      1823      1821      1826      1834
      1824      1821      1826      1828      1824      1821      1826      1834
      1825      1821      1826      1828      1825      1821      1826      1834
      1826      1828      1831      1833      1826      1828      1831      1837
      1826      1834      1837      1831      1826      1834      1837      1839
      1828      1826      1834      1836      1828      1826      1834      1837
      1828      1831      1837      1834      1828      1831      1837      1839
      1830      1828      1826      1834      1830      1828      1831      1833
      1830      1828      1831      1837      1831      1828      1826      1834
      1831      1837      1834      1836      1833      1831      1837      1834
      1833      1831      1837      1839      1836      1834      1837      1839
      1841      1846      1848      1850      1841      1846      1848      1851
      1841      1846      1854      1856      1841      1846      1854      1857
      1843      1841      1846      1848      1843      1841      1846      1854
      1844      1841      1846      1848      1844      1841      1846      1854
      1845      1841      1846      1848      1845      1841      1846      1854
      1846      1848      1851      1853      1846      1848      1851      1857
      1846      1854      1857      1851      1846      1854      1857      1859
      1848      1846      1854      1856      1848      1846      1854      1857
      1848      1851      1857      1854      1848      1851      1857      1859
      1850      1848      1846      1854      1850      1848      1851      1853
      1850      1848      1851      1857      1851      1848      1846      1854
      1851      1857      1854      1856      1853      1851      1857      1854
      1853      1851      1857      1859      1856      1854      1857      1859
      1861      1866      1868      1870      1861      1866      1868      1871
      1861      1866      1874      1876      1861      1866      1874      1877
      1863      1861      1866      1868      1863      1861      1866      1874
      1864      1861      1866      1868      1864      1861      1866      1874
      1865      1861      1866      1868      1865      1861      1866      1874
      1866      1868      1871      1873      1866      1868      1871      1877
      1866      1874      1877      1871      1866      1874      1877      1879
      1868      1866      1874      1876      1868      1866      1874      1877
      1868      1871      1877      1874      1868      1871      1877      1879
      1870      1868      1866      1874      1870      1868      1871      1873
      1870      1868      1871      1877      1871      1868      1866      1874
      1871      1877      1874      1876      1873      1871      1877      1874
      1873      1871      1877      1879      1876      1874      1877      1879
      1881      1886      1888      1890      1881      1886      1888      1891
      1881      1886      1894      1896      1881      1886      1894      1897
      1883      1881      1886      1888      1883      1881      1886      1894
      1884      1881      1886      1888      1884      1881      1886      1894
      1885      1881      1886      1888      1885      1881      1886      1894
      1886      1888      1891      1893      1886      1888      1891      1897
      1886      1894      1897      1891      1886      1894      1897      1899
      1888      1886      1894      1896      1888      1886      1894      1897
      1888      1891      1897      1894      1888      1891      1897      1899
      1890      1888      1886      1894      1890      1888      1891      1893
      1890      1888      1891      1897      1891      1888      1886      1894
      1891      1897      1894      1896      1893      1891      1897      1894
      1893      1891      1897      1899      1896      1894      1897      1899
      1901      1906      1908      1910      1901      1906      1908      1911
      1901      1906      1914      1916      1901      1906      1914      1917
      1903      1901      1906      1908      1903      1901      1906      1914
      1904      1901      1906      1908      1904      1901      1906      1914
      1905      1901      1906      1908      1905      1901      1906      1914
      1906      1908      1911      1913      1906      1908      1911      1917
      1906      1914      1917      1911      1906      1914      1917      1919
      1908      1906      1914      1916      1908      1906      1914      1917
      1908      1911      1917      1914      1908      1911      1917      1919
      1910      1908      1906      1914      1910      1908      1911      1913
      1910      1908      1911      1917      1911      1908      1906      1914
      1911      1917      1914      1916      1913      1911      1917      1914
      1913      1911      1917      1919      1916      1914      1917      1919
      1921      1926      1928      1930      1921      1926      1928      1931
      1921      1926      1934      1936      1921      1926      1934      1937
      1923      1921      1926      1928      1923      1921      1926      1934
      1924      1921      1926      1928      1924      1921      1926      1934
      1925      1921      1926      1928      1925      1921      1926      1934
      1926      1928      1931      1933      1926      1928      1931      1937
      1926      1934      1937      1931      1926      1934      1937      1939
      1928      1926      1934      1936      1928      1926      1934      1937
      1928      1931      1937      1934      1928      1931      1937      1939
      1930      1928      1926      1934      1930      1928      1931      1933
      1930      1928      1931      1937      1931      1928      1926      1934
      1931      1937      1934      1936      1933      1931      1937      1934
      1933      1931      1937      1939      1936      1934      1937      1939
      1941      1946      1948      1950      1941      1946      1948      1951
      1941      1946      1954      1956      1941      1946      1954      1957
      1943      1941      1946      1948      1943      1941      1946      1954
      1944      1941      1946      1948      1944      1941      1946      1954
      1945      1941      1946      1948      1945      1941      1946      1954
      1946      1948      1951      1953      1946      1948      1951      1957
      1946      1954      1957      1951      1946      1954      1957      1959
      1948      1946      1954      1956      1948      1946      1954      1957
      1948      1951      1957      1954      1948      1951      1957      1959
      1950      1948      1946      1954      1950      1948      1951      1953
      1950      1948      1951      1957      1951      1948      1946      1954
      1951      1957      1954      1956      1953      1951      1957      1954
      1953      1951      1957      1959      1956      1954      1957      1959
      1961      1966      1968      1970      1961      1966      1968      1971
      1961      1966      1974      1976      1961      1966      1974      1977
      1963      1961      1966      1968      1963      1961      1966      1974
      1964      1961      1966      1968      1964      1961      1966      1974
      1965      1961      1966      1968      1965      1961      1966      1974
      1966      1968      1971      1973      1966      1968      1971      1977
      1966      1974      1977      1971      1966      1974      1977      1979
      1968      1966      1974      1976      1968      1966      1974      1977
      1968      1971      1977      1974      1968      1971      1977      1979
      1970      1968      1966      1974      1970      1968      1971      1973
      1970      1968      1971      1977      1971      1968      1966      1974
      1971      1977      1974      1976      1973      1971      1977      1974
      1973      1971      1977      1979      1976      1974      1977      1979
      1981      1986      1988      1990      1981      1986      1988      1991
      1981      1986      1994      1996      1981      1986      1994      1997
      1983      1981      1986      1988      1983      1981      1986      1994
      1984      1981      1986      1988      1984      1981      1986      1994
      1985      1981      1986      1988      1985      1981      1986      1994
      1986      1988      1991      1993      1986      1988      1991      1997
      1986      1994      1997      1991      1986      1994      1997      1999
      1988      1986      1994      1996      1988      1986      1994      1997
      1988      1991      1997      1994      1988      1991      1997      1999
      1990      1988      1986      1994      1990      1988      1991      1993
      1990      1988      1991      1997      1991      1988      1986      1994
      1991      1997      1994      1996      1993      1991      1997      1994
      1993      1991      1997      1999      1996      1994      1997      1999
      2001      2006      2008      2010      2001      2006      2008      2011
      2001      2006      2014      2016      2001      2006      2014      2017
      2003      2001      2006      2008      2003      2001      2006      2014
      2004      2001      2006      2008      2004      2001      2006      2014
      2005      2001      2006      2008      2005      2001      2006      2014
      2006      2008      2011      2013      2006      2008      2011      2017
      2006      2014      2017      2011      2006      2014      2017      2019
      2008      2006      2014      2016      2008      2006      2014      2017
      2008      2011      2017      2014      2008      2011      2017      2019
      2010      2008      2006      2014      2010      2008      2011      2013
      2010      2008      2011      2017      2011      2008      2006      2014
      2011      2017      2014      2016      2013      2011      2017      2014
      2013      2011      2017      2019      2016      2014      2017      2019
      2021      2026      2028      2030      2021      2026      2028      2031
      2021      2026      2034      2036      2021      2026      2034      2037
      2023      2021      2026      2028      2023      2021      2026      2034
      2024      2021      2026      2028      2024      2021      2026      2034
      2025      2021      2026      2028      2025      2021      2026      2034
      2026      2028      2031      2033      2026      2028      2031      2037
      2026      2034      2037      2031      2026      2034      2037      2039
      2028      2026      2034      2036      2028      2026      2034      2037
      2028      2031      2037      2034      2028      2031      2037      2039
      2030      2028      2026      2034      2030      2028      2031      2033
      2030      2028      2031      2037      2031      2028      2026      2034
      2031      2037      2034      2036      2033      2031      2037      2034
      2033      2031      2037      2039      2036      2034      2037      2039
      2041      2046      2048      2050      2041      2046      2048      2051
      2041      2046      2054      2056      2041      2046      2054      2057
      2043      2041      2046      2048      2043      2041      2046      2054
      2044      2041      2046      2048      2044      2041      2046      2054
      2045      2041      2046      2048      2045      2041      2046      2054
      2046      2048      2051      2053      2046      2048      2051      2057
      2046      2054      2057      2051      2046      2054      2057      2059
      2048      2046      2054      2056      2048      2046      2054      2057
      2048      2051      2057      2054      2048      2051      2057      2059
      2050      2048      2046      2054      2050      2048      2051      2053
      2050      2048      2051      2057      2051      2048      2046      2054
      2051      2057      2054      2056      2053      2051      2057      2054
      2053      2051      2057      2059      2056      2054      2057      2059
      2061      2066      2068      2070      2061      2066      2068      2071
      2061      2066      2074      2076      2061      2066      2074      2077
      2063      2061      2066      2068      2063      2061      2066      2074
      2064      2061      2066      2068      2064      2061      2066      2074
      2065      2061      2066      2068      2065      2061      2066      2074
      2066      2068      2071      2073      2066      2068      2071      2077
      2066      2074      2077      2071      2066      2074      2077      2079
      2068      2066      2074      2076      2068      2066      2074      2077
      2068      2071      2077      2074      2068      2071      2077      2079
      2070      2068      2066      2074      2070      2068      2071      2073
      2070      2068      2071      2077      2071      2068      2066      2074
      2071      2077      2074      2076      2073      2071      2077      2074
      2073      2071      2077      2079      2076      2074      2077      2079
      2081      2086      2088      2090      2081      2086      2088      2091
      2081      2086      2094      2096      2081      2086      2094      2097
      2083      2081      2086      2088      2083      2081      2086      2094
      2084      2081      2086      2088      2084      2081      2086      2094
      2085      2081      2086      2088      2085      2081      2086      2094
      2086      2088      2091      2093      2086      2088      2091      2097
      2086      2094      2097      2091      2086      2094      2097      2099
      2088      2086      2094      2096      2088      2086      2094      2097
      2088      2091      2097      2094      2088      2091      2097      2099
      2090      2088      2086      2094      2090      2088      2091      2093
      2090      2088      2091      2097      2091      2088      2086      2094
      2091      2097      2094      2096      2093      2091      2097      2094
      2093      2091      2097      2099      2096      2094      2097      2099
      2101      2106      2108      2110      2101      2106      2108      2111
      2101      2106      2114      2116      2101      2106      2114      2117
      2103      2101      2106      2108      2103      2101      2106      2114
      2104      2101      2106      2108      2104      2101      2106      2114
      2105      2101      2106      2108      2105      2101      2106      2114
      2106      2108      2111      2113      2106      2108      2111      2117
      2106      2114      2117      2111      2106      2114      2117      2119
      2108      2106      2114      2116      2108      2106      2114      2117
      2108      2111      2117      2114      2108      2111      2117      2119
      2110      2108      2106      2114      2110      2108      2111      2113
      2110      2108      2111      2117      2111      2108      2106      2114
      2111      2117      2114      2116      2113      2111      2117      2114
      2113      2111      2117      2119      2116      2114      2117      2119
      2121      2126      2128      2130      2121      2126      2128      2131
      2121      2126      2134      2136      2121      2126      2134      2137
      2123      2121      2126      2128      2123      2121      2126      2134
      2124      2121      2126      2128      2124      2121      2126      2134
      2125      2121      2126      2128      2125      2121      2126      2134
      2126      2128      2131      2133      2126      2128      2131      2137
      2126      2134      2137      2131      2126      2134      2137      2139
      2128      2126      2134      2136      2128      2126      2134      2137
      2128      2131      2137      2134      2128      2131      2137      2139
      2130      2128      2126      2134      2130      2128      2131      2133
      2130      2128      2131      2137      2131      2128      2126      2134
      2131      2137      2134      2136      2133      2131      2137      2134
      2133      2131      2137      2139      2136      2134      2137      2139
      2141      2146      2148      2150      2141      2146      2148      2151
      2141      2146      2154      2156      2141      2146      2154      2157
      2143      2141      2146      2148      2143      2141      2146      2154
      2144      2141      2146      2148      2144      2141      2146      2154
      2145      2141      2146      2148      2145      2141      2146      2154
      2146      2148      2151      2153      2146      2148      2151      2157
      2146      2154      2157      2151      2146      2154      2157      2159
      2148      2146      2154      2156      2148      2146      2154      2157
      2148      2151      2157      2154      2148      2151      2157      2159
      2150      2148      2146      2154      2150      2148      2151      2153
      2150      2148      2151      2157      2151      2148      2146      2154
      2151      2157      2154      2156      2153      2151      2157      2154
      2153      2151      2157      2159      2156      2154      2157      2159
      2161      2166      2168      2170      2161      2166      2168      2171
      2161      2166      2174      2176      2161      2166      2174      2177
      2163      2161      2166      2168      2163      2161      2166      2174
      2164      2161      2166      2168      2164      2161      2166      2174
      2165      2161      2166      2168      2165      2161      2166      2174
      2166      2168      2171      2173      2166      2168      2171      2177
      2166      2174      2177      2171      2166      2174      2177      2179
      2168      2166      2174      2176      2168      2166      2174      2177
      2168      2171      2177      2174      2168      2171      2177      2179
      2170      2168      2166      2174      2170      2168      2171      2173
      2170      2168      2171      2177      2171      2168      2166      2174
      2171      2177      2174      2176      2173      2171      2177      2174
      2173      2171      2177      2179      2176      2174      2177      2179
      2181      2186      2188      2190      2181      2186      2188      2191
      2181      2186      2194      2196      2181      2186      2194      2197
      2183      2181      2186      2188      2183      2181      2186      2194
      2184      2181      2186      2188      2184      2181      2186      2194
      2185      2181      2186      2188      2185      2181      2186      2194
      2186      2188      2191      2193      2186      2188      2191      2197
      2186      2194      2197      2191      2186      2194      2197      2199
      2188      2186      2194      2196      2188      2186      2194      2197
      2188      2191      2197      2194      2188      2191      2197      2199
      2190      2188      2186      2194      2190      2188      2191      2193
      2190      2188      2191      2197      2191      2188      2186      2194
      2191      2197      2194      2196      2193      2191      2197      2194
      2193      2191      2197      2199      2196      2194      2197      2199
      2201      2206      2208      2210      2201      2206      2208      2211
      2201      2206      2214      2216      2201      2206      2214      2217
      2203      2201      2206      2208      2203      2201      2206      2214
      2204      2201      2206      2208      2204      2201      2206      2214
      2205      2201      2206      2208      2205      2201      2206      2214
      2206      2208      2211      2213      2206      2208      2211      2217
      2206      2214      2217      2211      2206      2214      2217      2219
      2208      2206      2214      2216      2208      2206      2214      2217
      2208      2211      2217      2214      2208      2211      2217      2219
      2210      2208      2206      2214      2210      2208      2211      2213
      2210      2208      2211      2217      2211      2208      2206      2214
      2211      2217      2214      2216      2213      2211      2217      2214
      2213      2211      2217      2219      2216      2214      2217      2219
      2221      2226      2228      2230      2221      2226      2228      2231
      2221      2226      2234      2236      2221      2226      2234      2237
      2223      2221      2226      2228      2223      2221      2226      2234
      2224      2221      2226      2228      2224      2221      2226      2234
      2225      2221      2226      2228      2225      2221      2226      2234
      2226      2228      2231      2233      2226      2228      2231      2237
      2226      2234      2237      2231      2226      2234      2237      2239
      2228      2226      2234      2236      2228      2226      2234      2237
      2228      2231      2237      2234      2228      2231      2237      2239
      2230      2228      2226      2234      2230      2228      2231      2233
      2230      2228      2231      2237      2231      2228      2226      2234
      2231      2237      2234      2236      2233      2231      2237      2234
      2233      2231      2237      2239      2236      2234      2237      2239
      2241      2246      2248      2250      2241      2246      2248      2251
      2241      2246      2254      2256      2241      2246      2254      2257
      2243      2241      2246      2248      2243      2241      2246      2254
      2244      2241      2246      2248      2244      2241      2246      2254
      2245      2241      2246      2248      2245      2241      2246      2254
      2246      2248      2251      2253      2246      2248      2251      2257
      2246      2254      2257      2251      2246      2254      2257      2259
      2248      2246      2254      2256      2248      2246      2254      2257
      2248      2251      2257      2254      2248      2251      2257      2259
      2250      2248      2246      2254      2250      2248      2251      2253
      2250      2248      2251      2257      2251      2248      2246      2254
      2251      2257      2254      2256      2253      2251      2257      2254
      2253      2251      2257      2259      2256      2254      2257      2259
      2261      2266      2268      2270      2261      2266      2268      2271
      2261      2266      2274      2276      2261      2266      2274      2277
      2263      2261      2266      2268      2263      2261      2266      2274
      2264      2261      2266      2268      2264      2261      2266      2274
      2265      2261      2266      2268      2265      2261      2266      2274
      2266      2268      2271      2273      2266      2268      2271      2277
      2266      2274      2277      2271      2266      2274      2277      2279
      2268      2266      2274      2276      2268      2266      2274      2277
      2268      2271      2277      2274      2268      2271      2277      2279
      2270      2268      2266      2274      2270      2268      2271      2273
      2270      2268      2271      2277      2271      2268      2266      2274
      2271      2277      2274      2276      2273      2271      2277      2274
      2273      2271      2277      2279      2276      2274      2277      2279
      2281      2286      2288      2290      2281      2286      2288      2291
      2281      2286      2294      2296      2281      2286      2294      2297
      2283      2281      2286      2288      2283      2281      2286      2294
      2284      2281      2286      2288      2284      2281      2286      2294
      2285      2281      2286      2288      2285      2281      2286      2294
      2286      2288      2291      2293      2286      2288      2291      2297
      2286      2294      2297      2291      2286      2294      2297      2299
      2288      2286      2294      2296      2288      2286      2294      2297
      2288      2291      2297      2294      2288      2291      2297      2299
      2290      2288      2286      2294      2290      2288      2291      2293
      2290      2288      2291      2297      2291      2288      2286      2294
      2291      2297      2294      2296      2293      2291      2297      2294
      2293      2291      2297      2299      2296      2294      2297      2299
      2301      2306      2308      2310      2301      2306      2308      2311
      2301      2306      2314      2316      2301      2306      2314      2317
      2303      2301      2306      2308      2303      2301      2306      2314
      2304      2301      2306      2308      2304      2301      2306      2314
      2305      2301      2306      2308      2305      2301      2306      2314
      2306      2308      2311      2313      2306      2308      2311      2317
      2306      2314      2317      2311      2306      2314      2317      2319
      2308      2306      2314      2316      2308      2306      2314      2317
      2308      2311      2317      2314      2308      2311      2317      2319
      2310      2308      2306      2314      2310      2308      2311      2313
      2310      2308      2311      2317      2311      2308      2306      2314
      2311      2317      2314      2316      2313      2311      2317      2314
      2313      2311      2317      2319      2316      2314      2317      2319
      2321      2326      2328      2330      2321      2326      2328      2331
      2321      2326      2334      2336      2321      2326      2334      2337
      2323      2321      2326      2328      2323      2321      2326      2334
      2324      2321      2326      2328      2324      2321      2326      2334
      2325      2321      2326      2328      2325      2321      2326      2334
      2326      2328      2331      2333      2326      2328      2331      2337
      2326      2334      2337      2331      2326      2334      2337      2339
      2328      2326      2334      2336      2328      2326      2334      2337
      2328      2331      2337      2334      2328      2331      2337      2339
      2330      2328      2326      2334      2330      2328      2331      2333
      2330      2328      2331      2337      2331      2328      2326      2334
      2331      2337      2334      2336      2333      2331      2337      2334
      2333      2331      2337      2339      2336      2334      2337      2339
      2341      2346      2348      2350      2341      2346      2348      2351
      2341      2346      2354      2356      2341      2346      2354      2357
      2343      2341      2346      2348      2343      2341      2346      2354
      2344      2341      2346      2348      2344      2341      2346      2354
      2345      2341      2346      2348      2345      2341      2346      2354
      2346      2348      2351      2353      2346      2348      2351      2357
      2346      2354      2357      2351      2346      2354      2357      2359
      2348      2346      2354      2356      2348      2346      2354      2357
      2348      2351      2357      2354      2348      2351      2357      2359
      2350      2348      2346      2354      2350      2348      2351      2353
      2350      2348      2351      2357      2351      2348      2346      2354
      2351      2357      2354      2356      2353      2351      2357      2354
      2353      2351      2357      2359      2356      2354      2357      2359
      2361      2366      2368      2370      2361      2366      2368      2371
      2361      2366      2374      2376      2361      2366      2374      2377
      2363      2361      2366      2368      2363      2361      2366      2374
      2364      2361      2366      2368      2364      2361      2366      2374
      2365      2361      2366      2368      2365      2361      2366      2374
      2366      2368      2371      2373      2366      2368      2371      2377
      2366      2374      2377      2371      2366      2374      2377      2379
      2368      2366      2374      2376      2368      2366      2374      2377
      2368      2371      2377      2374      2368      2371      2377      2379
      2370      2368      2366      2374      2370      2368      2371      2373
      2370      2368      2371      2377      2371      2368      2366      2374
      2371      2377      2374      2376      2373      2371      2377      2374
      2373      2371      2377      2379      2376      2374      2377      2379
      2381      2386      2388      2390      2381      2386      2388      2391
      2381      2386      2394      2396      2381      2386      2394      2397
      2383      2381      2386      2388      2383      2381      2386      2394
      2384      2381      2386      2388      2384      2381      2386      2394
      2385      2381      2386      2388      2385      2381      2386      2394
      2386      2388      2391      2393      2386      2388      2391      2397
      2386      2394      2397      2391      2386      2394      2397      2399
      2388      2386      2394      2396      2388      2386      2394      2397
      2388      2391      2397      2394      2388      2391      2397      2399
      2390      2388      2386      2394      2390      2388      2391      2393
      2390      2388      2391      2397      2391      2388      2386      2394
      2391      2397      2394      2396      2393      2391      2397      2394
      2393      2391      2397      2399      2396      2394      2397      2399
      2401      2406      2408      2410      2401      2406      2408      2411
      2401      2406      2414      2416      2401      2406      2414      2417
      2403      2401      2406      2408      2403      2401      2406      2414
      2404      2401      2406      2408      2404      2401      2406      2414
      2405      2401      2406      2408      2405      2401      2406      2414
      2406      2408      2411      2413      2406      2408      2411      2417
      2406      2414      2417      2411      2406      2414      2417      2419
      2408      2406      2414      2416      2408      2406      2414      2417
      2408      2411      2417      2414      2408      2411      2417      2419
      2410      2408      2406      2414      2410      2408      2411      2413
      2410      2408      2411      2417      2411      2408      2406      2414
      2411      2417      2414      2416      2413      2411      2417      2414
      2413      2411      2417      2419      2416      2414      2417      2419
      2421      2426      2428      2430      2421      2426      2428      2431
      2421      2426      2434      2436      2421      2426      2434      2437
      2423      2421      2426      2428      2423      2421      2426      2434
      2424      2421      2426      2428      2424      2421      2426      2434
      2425      2421      2426      2428      2425      2421      2426      2434
      2426      2428      2431      2433      2426      2428      2431      2437
      2426      2434      2437      2431      2426      2434      2437      2439
      2428      2426      2434      2436      2428      2426      2434      2437
      2428      2431      2437      2434      2428      2431      2437      2439
      2430      2428      2426      2434      2430      2428      2431      2433
      2430      2428      2431      2437      2431      2428      2426      2434
      2431      2437      2434      2436      2433      2431      2437      2434
      2433      2431      2437      2439      2436      2434      2437      2439
      2441      2446      2448      2450      2441      2446      2448      2451
      2441      2446      2454      2456      2441      2446      2454      2457
      2443      2441      2446      2448      2443      2441      2446      2454
      2444      2441      2446      2448      2444      2441      2446      2454
      2445      2441      2446      2448      2445      2441      2446      2454
      2446      2448      2451      2453      2446      2448      2451      2457
      2446      2454      2457      2451      2446      2454      2457      2459
      2448      2446      2454      2456      2448      2446      2454      2457
      2448      2451      2457      2454      2448      2451      2457      2459
      2450      2448      2446      2454      2450      2448      2451      2453
      2450      2448      2451      2457      2451      2448      2446      2454
      2451      2457      2454      2456      2453      2451      2457      2454
      2453      2451      2457      2459      2456      2454      2457      2459
      2461      2466      2468      2470      2461      2466      2468      2471
      2461      2466      2474      2476      2461      2466      2474      2477
      2463      2461      2466      2468      2463      2461      2466      2474
      2464      2461      2466      2468      2464      2461      2466      2474
      2465      2461      2466      2468      2465      2461      2466      2474
      2466      2468      2471      2473      2466      2468      2471      2477
      2466      2474      2477      2471      2466      2474      2477      2479
      2468      2466      2474      2476      2468      2466      2474      2477
      2468      2471      2477      2474      2468      2471      2477      2479
      2470      2468      2466      2474      2470      2468      2471      2473
      2470      2468      2471      2477      2471      2468      2466      2474
      2471      2477      2474      2476      2473      2471      2477      2474
      2473      2471      2477      2479      2476      2474      2477      2479
      2481      2486      2488      2490      2481      2486      2488      2491
      2481      2486      2494      2496      2481      2486      2494      2497
      2483      2481      2486      2488      2483      2481      2486      2494
      2484      2481      2486      2488      2484      2481      2486      2494
      2485      2481      2486      2488      2485      2481      2486      2494
      2486      2488      2491      2493      2486      2488      2491      2497
      2486      2494      2497      2491      2486      2494      2497      2499
      2488      2486      2494      2496      2488      2486      2494      2497
      2488      2491      2497      2494      2488      2491      2497      2499
      2490      2488      2486      2494      2490      2488      2491      2493
      2490      2488      2491      2497      2491      2488      2486      2494
      2491      2497      2494      2496      2493      2491      2497      2494
      2493      2491      2497      2499      2496      2494      2497      2499
      2501      2506      2508      2510      2501      2506      2508      2511
      2501      2506      2514      2516      2501      2506      2514      2517
      2503      2501      2506      2508      2503      2501      2506      2514
      2504      2501      2506      2508      2504      2501      2506      2514
      2505      2501      2506      2508      2505      2501      2506      2514
      2506      2508      2511      2513      2506      2508      2511      2517
      2506      2514      2517      2511      2506      2514      2517      2519
      2508      2506      2514      2516      2508      2506      2514      2517
      2508      2511      2517      2514      2508      2511      2517      2519
      2510      2508      2506      2514      2510      2508      2511      2513
      2510      2508      2511      2517      2511      2508      2506      2514
      2511      2517      2514      2516      2513      2511      2517      2514
      2513      2511      2517      2519      2516      2514      2517      2519
      2521      2526      2528      2530      2521      2526      2528      2531
      2521      2526      2534      2536      2521      2526      2534      2537
      2523      2521      2526      2528      2523      2521      2526      2534
      2524      2521      2526      2528      2524      2521      2526      2534
      2525      2521      2526      2528      2525      2521      2526      2534
      2526      2528      2531      2533      2526      2528      2531      2537
      2526      2534      2537      2531      2526      2534      2537      2539
      2528      2526      2534      2536      2528      2526      2534      2537
      2528      2531      2537      2534      2528      2531      2537      2539
      2530      2528      2526      2534      2530      2528      2531      2533
      2530      2528      2531      2537      2531      2528      2526      2534
      2531      2537      2534      2536      2533      2531      2537      2534
      2533      2531      2537      2539      2536      2534      2537      2539
      2541      2546      2548      2550      2541      2546      2548      2551
      2541      2546      2554      2556      2541      2546      2554      2557
      2543      2541      2546      2548      2543      2541      2546      2554
      2544      2541      2546      2548      2544      2541      2546      2554
      2545      2541      2546      2548      2545      2541      2546      2554
      2546      2548      2551      2553      2546      2548      2551      2557
      2546      2554      2557      2551      2546      2554      2557      2559
      2548      2546      2554      2556      2548      2546      2554      2557
      2548      2551      2557      2554      2548      2551      2557      2559
      2550      2548      2546      2554      2550      2548      2551      2553
      2550      2548      2551      2557      2551      2548      2546      2554
      2551      2557      2554      2556      2553      2551      2557      2554
      2553      2551      2557      2559      2556      2554      2557      2559
      2561      2566      2568      2570      2561      2566      2568      2571
      2561      2566      2574      2576      2561      2566      2574      2577
      2563      2561      2566      2568      2563      2561      2566      2574
      2564      2561      2566      2568      2564      2561      2566      2574
      2565      2561      2566      2568      2565      2561      2566      2574
      2566      2568      2571      2573      2566      2568      2571      2577
      2566      2574      2577      2571      2566      2574      2577      2579
      2568      2566      2574      2576      2568      2566      2574      2577
      2568      2571      2577      2574      2568      2571      2577      2579
      2570      2568      2566      2574      2570      2568      2571      2573
      2570      2568      2571      2577      2571      2568      2566      2574
      2571      2577      2574      2576      2573      2571      2577      2574
      2573      2571      2577      2579      2576      2574      2577      2579
      2581      2586      2588      2590      2581      2586      2588      2591
      2581      2586      2594      2596      2581      2586      2594      2597
      2583      2581      2586      2588      2583      2581      2586      2594
      2584      2581      2586      2588      2584      2581      2586      2594
      2585      2581      2586      2588      2585      2581      2586      2594
      2586      2588      2591      2593      2586      2588      2591      2597
      2586      2594      2597      2591      2586      2594      2597      2599
      2588      2586      2594      2596      2588      2586      2594      2597
      2588      2591      2597      2594      2588      2591      2597      2599
      2590      2588      2586      2594      2590      2588      2591      2593
      2590      2588      2591      2597      2591      2588      2586      2594
      2591      2597      2594      2596      2593      2591      2597      2594
      2593      2591      2597      2599      2596      2594      2597      2599
      2601      2606      2608      2610      2601      2606      2608      2611
      2601      2606      2614      2616      2601      2606      2614      2617
      2603      2601      2606      2608      2603      2601      2606      2614
      2604      2601      2606      2608      2604      2601      2606      2614
      2605      2601      2606      2608      2605      2601      2606      2614
      2606      2608      2611      2613      2606      2608      2611      2617
      2606      2614      2617      2611      2606      2614      2617      2619
      2608      2606      2614      2616      2608      2606      2614      2617
      2608      2611      2617      2614      2608      2611      2617      2619
      2610      2608      2606      2614      2610      2608      2611      2613
      2610      2608      2611      2617      2611      2608      2606      2614
      2611      2617      2614      2616      2613      2611      2617      2614
      2613      2611      2617      2619      2616      2614      2617      2619
      2621      2626      2628      2630      2621      2626      2628      2631
      2621      2626      2634      2636      2621      2626      2634      2637
      2623      2621      2626      2628      2623      2621      2626      2634
      2624      2621      2626      2628      2624      2621      2626      2634
      2625      2621      2626      2628      2625      2621      2626      2634
      2626      2628      2631      2633      2626      2628      2631      2637
      2626      2634      2637      2631      2626      2634      2637      2639
      2628      2626      2634      2636      2628      2626      2634      2637
      2628      2631      2637      2634      2628      2631      2637      2639
      2630      2628      2626      2634      2630      2628      2631      2633
      2630      2628      2631      2637      2631      2628      2626      2634
      2631      2637      2634      2636      2633      2631      2637      2634
      2633      2631      2637      2639      2636      2634      2637      2639
      2641      2646      2648      2650      2641      2646      2648      2651
      2641      2646      2654      2656      2641      2646      2654      2657
      2643      2641      2646      2648      2643      2641      2646      2654
      2644      2641      2646      2648      2644      2641      2646      2654
      2645      2641      2646      2648      2645      2641      2646      2654
      2646      2648      2651      2653      2646      2648      2651      2657
      2646      2654      2657      2651      2646      2654      2657      2659
      2648      2646      2654      2656      2648      2646      2654      2657
      2648      2651      2657      2654      2648      2651      2657      2659
      2650      2648      2646      2654      2650      2648      2651      2653
      2650      2648      2651      2657      2651      2648      2646      2654
      2651      2657      2654      2656      2653      2651      2657      2654
      2653      2651      2657      2659      2656      2654      2657      2659
      2661      2666      2668      2670      2661      2666      2668      2671
      2661      2666      2674      2676      2661      2666      2674      2677
      2663      2661      2666      2668      2663      2661      2666      2674
      2664      2661      2666      2668      2664      2661      2666      2674
      2665      2661      2666      2668      2665      2661      2666      2674
      2666      2668      2671      2673      2666      2668      2671      2677
      2666      2674      2677      2671      2666      2674      2677      2679
      2668      2666      2674      2676      2668      2666      2674      2677
      2668      2671      2677      2674      2668      2671      2677      2679
      2670      2668      2666      2674      2670      2668      2671      2673
      2670      2668      2671      2677      2671      2668      2666      2674
      2671      2677      2674      2676      2673      2671      2677      2674
      2673      2671      2677      2679      2676      2674      2677      2679
      2681      2686      2688      2690      2681      2686      2688      2691
      2681      2686      2694      2696      2681      2686      2694      2697
      2683      2681      2686      2688      2683      2681      2686      2694
      2684      2681      2686      2688      2684      2681      2686      2694
      2685      2681      2686      2688      2685      2681      2686      2694
      2686      2688      2691      2693      2686      2688      2691      2697
      2686      2694      2697      2691      2686      2694      2697      2699
      2688      2686      2694      2696      2688      2686      2694      2697
      2688      2691      2697      2694      2688      2691      2697      2699
      2690      2688      2686      2694      2690      2688      2691      2693
      2690      2688      2691      2697      2691      2688      2686      2694
      2691      2697      2694      2696      2693      2691      2697      2694
      2693      2691      2697      2699      2696      2694      2697      2699
      2701      2703      2705      2707      2701      2703      2705      2718
      2701      2703      2705      2719      2703      2705      2707      2709
      2703      2705      2707      2711      2705      2703      2701      2713
      2705      2703      2701      2714      2705      2703      2701      2715
      2705      2707      2709      2721      2705      2707      2711      2720
      2707      2705      2703      2716      2707      2705      2703      2717
      2709      2707      2705      2718      2709      2707      2705      2719
      2709      2707      2711      2720      2711      2707      2705      2718
      2711      2707      2705      2719      2711      2707      2709      2721
      2713      2701      2703      2716      2713      2701      2703      2717
      2714      2701      2703      2716      2714      2701      2703      2717
      2715      2701      2703      2716      2715      2701      2703      2717
      2716      2703      2705      2718      2716      2703      2705      2719
      2717      2703      2705      2718      2717      2703      2705      2719
      2726      2728      2730      2732      2726      2728      2730      2743
      2726      2728      2730      2744      2728      2730      2732      2734
      2728      2730      2732      2736      2730      2728      2726      2738
      2730      2728      2726      2739      2730      2728      2726      2740
      2730      2732      2734      2746      2730      2732      2736      2745
      2732      2730      2728      2741      2732      2730      2728      2742
      2734      2732      2730      2743      2734      2732      2730      2744
      2734      2732      2736      2745      2736      2732      2730      2743
      2736      2732      2730      2744      2736      2732      2734      2746
      2738      2726      2728      2741      2738      2726      2728      2742
      2739      2726      2728      2741      2739      2726      2728      2742
      2740      2726      2728      2741      2740      2726      2728      2742
      2741      2728      2730      2743      2741      2728      2730      2744
      2742      2728      2730      2743      2742      2728      2730      2744
      2751      2753      2755      2757      2751      2753      2755      2768
      2751      2753      2755      2769      2753      2755      2757      2759
      2753      2755      2757      2761      2755      2753      2751      2763
      2755      2753      2751      2764      2755      2753      2751      2765
      2755      2757      2759      2771      2755      2757      2761      2770
      2757      2755      2753      2766      2757      2755      2753      2767
      2759      2757      2755      2768      2759      2757      2755      2769
      2759      2757      2761      2770      2761      2757      2755      2768
      2761      2757      2755      2769      2761      2757      2759      2771
      2763      2751      2753      2766      2763      2751      2753      2767
      2764      2751      2753      2766      2764      2751      2753      2767
      2765      2751      2753      2766      2765      2751      2753      2767
      2766      2753      2755      2768      2766      2753      2755      2769
      2767      2753      2755      2768      2767      2753      2755      2769
      2776      2778      2780      2782      2776      2778      2780      2793
      2776      2778      2780      2794      2778      2780      2782      2784
      2778      2780      2782      2786      2780      2778      2776      2788
      2780      2778      2776      2789      2780      2778      2776      2790
      2780      2782      2784      2796      2780      2782      2786      2795
      2782      2780      2778      2791      2782      2780      2778      2792
      2784      2782      2780      2793      2784      2782      2780      2794
      2784      2782      2786      2795      2786      2782      2780      2793
      2786      2782      2780      2794      2786      2782      2784      2796
      2788      2776      2778      2791      2788      2776      2778      2792
      2789      2776      2778      2791      2789      2776      2778      2792
      2790      2776      2778      2791      2790      2776      2778      2792
      2791      2778      2780      2793      2791      2778      2780      2794
      2792      2778      2780      2793      2792      2778      2780      2794
      2801      2803      2805      2807      2801      2803      2805      2818
      2801      2803      2805      2819      2803      2805      2807      2809
      2803      2805      2807      2811      2805      2803      2801      2813
      2805      2803      2801      2814      2805      2803      2801      2815
      2805      2807      2809      2821      2805      2807      2811      2820
      2807      2805      2803      2816      2807      2805      2803      2817
      2809      2807      2805      2818      2809      2807      2805      2819
      2809      2807      2811      2820      2811      2807      2805      2818
      2811      2807      2805      2819      2811      2807      2809      2821
      2813      2801      2803      2816      2813      2801      2803      2817
      2814      2801      2803      2816      2814      2801      2803      2817
      2815      2801      2803      2816      2815      2801      2803      2817
      2816      2803      2805      2818      2816      2803      2805      2819
      2817      2803      2805      2818      2817      2803      2805      2819
      2826      2828      2830      2832      2826      2828      2830      2843
      2826      2828      2830      2844      2828      2830      2832      2834
      2828      2830      2832      2836      2830      2828      2826      2838
      2830      2828      2826      2839      2830      2828      2826      2840
      2830      2832      2834      2846      2830      2832      2836      2845
      2832      2830      2828      2841      2832      2830      2828      2842
      2834      2832      2830      2843      2834      2832      2830      2844
      2834      2832      2836      2845      2836      2832      2830      2843
      2836      2832      2830      2844      2836      2832      2834      2846
      2838      2826      2828      2841      2838      2826      2828      2842
      2839      2826      2828      2841      2839      2826      2828      2842
      2840      2826      2828      2841      2840      2826      2828      2842
      2841      2828      2830      2843      2841      2828      2830      2844
      2842      2828      2830      2843      2842      2828      2830      2844
      2851      2853      2855      2857      2851      2853      2855      2868
      2851      2853      2855      2869      2853      2855      2857      2859
      2853      2855      2857      2861      2855      2853      2851      2863
      2855      2853      2851      2864      2855      2853      2851      2865
      2855      2857      2859      2871      2855      2857      2861      2870
      2857      2855      2853      2866      2857      2855      2853      2867
      2859      2857      2855      2868      2859      2857      2855      2869
      2859      2857      2861      2870      2861      2857      2855      2868
      2861      2857      2855      2869      2861      2857      2859      2871
      2863      2851      2853      2866      2863      2851      2853      2867
      2864      2851      2853      2866      2864      2851      2853      2867
      2865      2851      2853      2866      2865      2851      2853      2867
      2866      2853      2855      2868      2866      2853      2855      2869
      2867      2853      2855      2868      2867      2853      2855      2869
      2876      2878      2880      2882      2876      2878      2880      2893
      2876      2878      2880      2894      2878      2880      2882      2884
      2878      2880      2882      2886      2880      2878      2876      2888
      2880      2878      2876      2889      2880      2878      2876      2890
      2880      2882      2884      2896      2880      2882      2886      2895
      2882      2880      2878      2891      2882      2880      2878      2892
      2884      2882      2880      2893      2884      2882      2880      2894
      2884      2882      2886      2895      2886      2882      2880      2893
      2886      2882      2880      2894      2886      2882      2884      2896
      2888      2876      2878      2891      2888      2876      2878      2892
      2889      2876      2878      2891      2889      2876      2878      2892
      2890      2876      2878      2891      2890      2876      2878      2892
      2891      2878      2880      2893      2891      2878      2880      2894
      2892      2878      2880      2893      2892      2878      2880      2894
      2901      2903      2905      2907      2901      2903      2905      2918
      2901      2903      2905      2919      2903      2905      2907      2909
      2903      2905      2907      2911      2905      2903      2901      2913
      2905      2903      2901      2914      2905      2903      2901      2915
      2905      2907      2909      2921      2905      2907      2911      2920
      2907      2905      2903      2916      2907      2905      2903      2917
      2909      2907      2905      2918      2909      2907      2905      2919
      2909      2907      2911      2920      2911      2907      2905      2918
      2911      2907      2905      2919      2911      2907      2909      2921
      2913      2901      2903      2916      2913      2901      2903      2917
      2914      2901      2903      2916      2914      2901      2903      2917
      2915      2901      2903      2916      2915      2901      2903      2917
      2916      2903      2905      2918      2916      2903      2905      2919
      2917      2903      2905      2918      2917      2903      2905      2919
      2926      2928      2930      2932      2926      2928      2930      2943
      2926      2928      2930      2944      2928      2930      2932      2934
      2928      2930      2932      2936      2930      2928      2926      2938
      2930      2928      2926      2939      2930      2928      2926      2940
      2930      2932      2934      2946      2930      2932      2936      2945
      2932      2930      2928      2941      2932      2930      2928      2942
      2934      2932      2930      2943      2934      2932      2930      2944
      2934      2932      2936      2945      2936      2932      2930      2943
      2936      2932      2930      2944      2936      2932      2934      2946
      2938      2926      2928      2941      2938      2926      2928      2942
      2939      2926      2928      2941      2939      2926      2928      2942
      2940      2926      2928      2941      2940      2926      2928      2942
      2941      2928      2930      2943      2941      2928      2930      2944
      2942      2928      2930      2943      2942      2928      2930      2944
      2951      2953      2955      2957      2951      2953      2955      2968
      2951      2953      2955      2969      2953      2955      2957      2959
      2953      2955      2957      2961      2955      2953      2951      2963
      2955      2953      2951      2964      2955      2953      2951      2965
      2955      2957      2959      2971      2955      2957      2961      2970
      2957      2955      2953      2966      2957      2955      2953      2967
      2959      2957      2955      2968      2959      2957      2955      2969
      2959      2957      2961      2970      2961      2957      2955      2968
      2961      2957      2955      2969      2961      2957      2959      2971
      2963      2951      2953      2966      2963      2951      2953      2967
      2964      2951      2953      2966      2964      2951      2953      2967
      2965      2951      2953      2966      2965      2951      2953      2967
      2966      2953      2955      2968      2966      2953      2955      2969
      2967      2953      2955      2968      2967      2953      2955      2969
      2976      2978      2980      2982      2976      2978      2980      2993
      2976      2978      2980      2994      2978      2980      2982      2984
      2978      2980      2982      2986      2980      2978      2976      2988
      2980      2978      2976      2989      2980      2978      2976      2990
      2980      2982      2984      2996      2980      2982      2986      2995
      2982      2980      2978      2991      2982      2980      2978      2992
      2984      2982      2980      2993      2984      2982      2980      2994
      2984      2982      2986      2995      2986      2982      2980      2993
      2986      2982      2980      2994      2986      2982      2984      2996
      2988      2976      2978      2991      2988      2976      2978      2992
      2989      2976      2978      2991      2989      2976      2978      2992
      2990      2976      2978      2991      2990      2976      2978      2992
      2991      2978      2980      2993      2991      2978      2980      2994
      2992      2978      2980      2993      2992      2978      2980      2994
      3001      3003      3005      3007      3001      3003      3005      3018
      3001      3003      3005      3019      3003      3005      3007      3009
      3003      3005      3007      3011      3005      3003      3001      3013
      3005      3003      3001      3014      3005      3003      3001      3015
      3005      3007      3009      3021      3005      3007      3011      3020
      3007      3005      3003      3016      3007      3005      3003      3017
      3009      3007      3005      3018      3009      3007      3005      3019
      3009      3007      3011      3020      3011      3007      3005      3018
      3011      3007      3005      3019      3011      3007      3009      3021
      3013      3001      3003      3016      3013      3001      3003      3017
      3014      3001      3003      3016      3014      3001      3003      3017
      3015      3001      3003      3016      3015      3001      3003      3017
      3016      3003      3005      3018      3016      3003      3005      3019
      3017      3003      3005      3018      3017      3003      3005      3019
      3026      3028      3030      3032      3026      3028      3030      3043
      3026      3028      3030      3044      3028      3030      3032      3034
      3028      3030      3032      3036      3030      3028      3026      3038
      3030      3028      3026      3039      3030      3028      3026      3040
      3030      3032      3034      3046      3030      3032      3036      3045
      3032      3030      3028      3041      3032      3030      3028      3042
      3034      3032      3030      3043      3034      3032      3030      3044
      3034      3032      3036      3045      3036      3032      3030      3043
      3036      3032      3030      3044      3036      3032      3034      3046
      3038      3026      3028      3041      3038      3026      3028      3042
      3039      3026      3028      3041      3039      3026      3028      3042
      3040      3026      3028      3041      3040      3026      3028      3042
      3041      3028      3030      3043      3041      3028      3030      3044
      3042      3028      3030      3043      3042      3028      3030      3044
      3051      3053      3055      3057      3051      3053      3055      3068
      3051      3053      3055      3069      3053      3055      3057      3059
      3053      3055      3057      3061      3055      3053      3051      3063
      3055      3053      3051      3064      3055      3053      3051      3065
      3055      3057      3059      3071      3055      3057      3061      3070
      3057      3055      3053      3066      3057      3055      3053      3067
      3059      3057      3055      3068      3059      3057      3055      3069
      3059      3057      3061      3070      3061      3057      3055      3068
      3061      3057      3055      3069      3061      3057      3059      3071
      3063      3051      3053      3066      3063      3051      3053      3067
      3064      3051      3053      3066      3064      3051      3053      3067
      3065      3051      3053      3066      3065      3051      3053      3067
      3066      3053      3055      3068      3066      3053      3055      3069
      3067      3053      3055      3068      3067      3053      3055      3069
      3076      3078      3080      3082      3076      3078      3080      3093
      3076      3078      3080      3094      3078      3080      3082      3084
      3078      3080      3082      3086      3080      3078      3076      3088
      3080      3078      3076      3089      3080      3078      3076      3090
      3080      3082      3084      3096      3080      3082      3086      3095
      3082      3080      3078      3091      3082      3080      3078      3092
      3084      3082      3080      3093      3084      3082      3080      3094
      3084      3082      3086      3095      3086      3082      3080      3093
      3086      3082      3080      3094      3086      3082      3084      3096
      3088      3076      3078      3091      3088      3076      3078      3092
      3089      3076      3078      3091      3089      3076      3078      3092
      3090      3076      3078      3091      3090      3076      3078      3092
      3091      3078      3080      3093      3091      3078      3080      3094
      3092      3078      3080      3093      3092      3078      3080      3094
      3101      3103      3105      3107      3101      3103      3105      3118
      3101      3103      3105      3119      3103      3105      3107      3109
      3103      3105      3107      3111      3105      3103      3101      3113
      3105      3103      3101      3114      3105      3103      3101      3115
      3105      3107      3109      3121      3105      3107      3111      3120
      3107      3105      3103      3116      3107      3105      3103      3117
      3109      3107      3105      3118      3109      3107      3105      3119
      3109      3107      3111      3120      3111      3107      3105      3118
      3111      3107      3105      3119      3111      3107      3109      3121
      3113      3101      3103      3116      3113      3101      3103      3117
      3114      3101      3103      3116      3114      3101      3103      3117
      3115      3101      3103      3116      3115      3101      3103      3117
      3116      3103      3105      3118      3116      3103      3105      3119
      3117      3103      3105      3118      3117      3103      3105      3119
      3126      3128      3130      3132      3126      3128      3130      3143
      3126      3128      3130      3144      3128      3130      3132      3134
      3128      3130      3132      3136      3130      3128      3126      3138
      3130      3128      3126      3139      3130      3128      3126      3140
      3130      3132      3134      3146      3130      3132      3136      3145
      3132      3130      3128      3141      3132      3130      3128      3142
      3134      3132      3130      3143      3134      3132      3130      3144
      3134      3132      3136      3145      3136      3132      3130      3143
      3136      3132      3130      3144      3136      3132      3134      3146
      3138      3126      3128      3141      3138      3126      3128      3142
      3139      3126      3128      3141      3139      3126      3128      3142
      3140      3126      3128      3141      3140      3126      3128      3142
      3141      3128      3130      3143      3141      3128      3130      3144
      3142      3128      3130      3143      3142      3128      3130      3144
      3151      3153      3155      3157      3151      3153      3155      3168
      3151      3153      3155      3169      3153      3155      3157      3159
      3153      3155      3157      3161      3155      3153      3151      3163
      3155      3153      3151      3164      3155      3153      3151      3165
      3155      3157      3159      3171      3155      3157      3161      3170
      3157      3155      3153      3166      3157      3155      3153      3167
      3159      3157      3155      3168      3159      3157      3155      3169
      3159      3157      3161      3170      3161      3157      3155      3168
      3161      3157      3155      3169      3161      3157      3159      3171
      3163      3151      3153      3166      3163      3151      3153      3167
      3164      3151      3153      3166      3164      3151      3153      3167
      3165      3151      3153      3166      3165      3151      3153      3167
      3166      3153      3155      3168      3166      3153      3155      3169
      3167      3153      3155      3168      3167      3153      3155      3169
      3176      3178      3180      3182      3176      3178      3180      3193
      3176      3178      3180      3194      3178      3180      3182      3184
      3178      3180      3182      3186      3180      3178      3176      3188
      3180      3178      3176      3189      3180      3178      3176      3190
      3180      3182      3184      3196      3180      3182      3186      3195
      3182      3180      3178      3191      3182      3180      3178      3192
      3184      3182      3180      3193      3184      3182      3180      3194
      3184      3182      3186      3195      3186      3182      3180      3193
      3186      3182      3180      3194      3186      3182      3184      3196
      3188      3176      3178      3191      3188      3176      3178      3192
      3189      3176      3178      3191      3189      3176      3178      3192
      3190      3176      3178      3191      3190      3176      3178      3192
      3191      3178      3180      3193      3191      3178      3180      3194
      3192      3178      3180      3193      3192      3178      3180      3194
      3201      3203      3205      3207      3201      3203      3205      3218
      3201      3203      3205      3219      3203      3205      3207      3209
      3203      3205      3207      3211      3205      3203      3201      3213
      3205      3203      3201      3214      3205      3203      3201      3215
      3205      3207      3209      3221      3205      3207      3211      3220
      3207      3205      3203      3216      3207      3205      3203      3217
      3209      3207      3205      3218      3209      3207      3205      3219
      3209      3207      3211      3220      3211      3207      3205      3218
      3211      3207      3205      3219      3211      3207      3209      3221
      3213      3201      3203      3216      3213      3201      3203      3217
      3214      3201      3203      3216      3214      3201      3203      3217
      3215      3201      3203      3216      3215      3201      3203      3217
      3216      3203      3205      3218      3216      3203      3205      3219
      3217      3203      3205      3218      3217      3203      3205      3219
      3226      3228      3230      3232      3226      3228      3230      3243
      3226      3228      3230      3244      3228      3230      3232      3234
      3228      3230      3232      3236      3230      3228      3226      3238
      3230      3228      3226      3239      3230      3228      3226      3240
      3230      3232      3234      3246      3230      3232      3236      3245
      3232      3230      3228      3241      3232      3230      3228      3242
      3234      3232      3230      3243      3234      3232      3230      3244
      3234      3232      3236      3245      3236      3232      3230      3243
      3236      3232      3230      3244      3236      3232      3234      3246
      3238      3226      3228      3241      3238      3226      3228      3242
      3239      3226      3228      3241      3239      3226      3228      3242
      3240      3226      3228      3241      3240      3226      3228      3242
      3241      3228      3230      3243      3241      3228      3230      3244
      3242      3228      3230      3243      3242      3228      3230      3244
      3251      3253      3255      3257      3251      3253      3255      3268
      3251      3253      3255      3269      3253      3255      3257      3259
      3253      3255      3257      3261      3255      3253      3251      3263
      3255      3253      3251      3264      3255      3253      3251      3265
      3255      3257      3259      3271      3255      3257      3261      3270
      3257      3255      3253      3266      3257      3255      3253      3267
      3259      3257      3255      3268      3259      3257      3255      3269
      3259      3257      3261      3270      3261      3257      3255      3268
      3261      3257      3255      3269      3261      3257      3259      3271
      3263      3251      3253      3266      3263      3251      3253      3267
      3264      3251      3253      3266      3264      3251      3253      3267
      3265      3251      3253      3266      3265      3251      3253      3267
      3266      3253      3255      3268      3266      3253      3255      3269
      3267      3253      3255      3268      3267      3253      3255      3269
      3276      3278      3280      3282      3276      3278      3280      3293
      3276      3278      3280      3294      3278      3280      3282      3284
      3278      3280      3282      3286      3280      3278      3276      3288
      3280      3278      3276      3289      3280      3278      3276      3290
      3280      3282      3284      3296      3280      3282      3286      3295
      3282      3280      3278      3291      3282      3280      3278      3292
      3284      3282      3280      3293      3284      3282      3280      3294
      3284      3282      3286      3295      3286      3282      3280      3293
      3286      3282      3280      3294      3286      3282      3284      3296
      3288      3276      3278      3291      3288      3276      3278      3292
      3289      3276      3278      3291      3289      3276      3278      3292
      3290      3276      3278      3291      3290      3276      3278      3292
      3291      3278      3280      3293      3291      3278      3280      3294
      3292      3278      3280      3293      3292      3278      3280      3294
      3301      3303      3305      3307      3301      3303      3305      3318
      3301      3303      3305      3319      3303      3305      3307      3309
      3303      3305      3307      3311      3305      3303      3301      3313
      3305      3303      3301      3314      3305      3303      3301      3315
      3305      3307      3309      3321      3305      3307      3311      3320
      3307      3305      3303      3316      3307      3305      3303      3317
      3309      3307      3305      3318      3309      3307      3305      3319
      3309      3307      3311      3320      3311      3307      3305      3318
      3311      3307      3305      3319      3311      3307      3309      3321
      3313      3301      3303      3316      3313      3301      3303      3317
      3314      3301      3303      3316      3314      3301      3303      3317
      3315      3301      3303      3316      3315      3301      3303      3317
      3316      3303      3305      3318      3316      3303      3305      3319
      3317      3303      3305      3318      3317      3303      3305      3319
      3326      3328      3330      3332      3326      3328      3330      3343
      3326      3328      3330      3344      3328      3330      3332      3334
      3328      3330      3332      3336      3330      3328      3326      3338
      3330      3328      3326      3339      3330      3328      3326      3340
      3330      3332      3334      3346      3330      3332      3336      3345
      3332      3330      3328      3341      3332      3330      3328      3342
      3334      3332      3330      3343      3334      3332      3330      3344
      3334      3332      3336      3345      3336      3332      3330      3343
      3336      3332      3330      3344      3336      3332      3334      3346
      3338      3326      3328      3341      3338      3326      3328      3342
      3339      3326      3328      3341      3339      3326      3328      3342
      3340      3326      3328      3341      3340      3326      3328      3342
      3341      3328      3330      3343      3341      3328      3330      3344
      3342      3328      3330      3343      3342      3328      3330      3344
      3351      3353      3355      3357      3351      3353      3355      3368
      3351      3353      3355      3369      3353      3355      3357      3359
      3353      3355      3357      3361      3355      3353      3351      3363
      3355      3353      3351      3364      3355      3353      3351      3365
      3355      3357      3359      3371      3355      3357      3361      3370
      3357      3355      3353      3366      3357      3355      3353      3367
      3359      3357      3355      3368      3359      3357      3355      3369
      3359      3357      3361      3370      3361      3357      3355      3368
      3361      3357      3355      3369      3361      3357      3359      3371
      3363      3351      3353      3366      3363      3351      3353      3367
      3364      3351      3353      3366      3364      3351      3353      3367
      3365      3351      3353      3366      3365      3351      3353      3367
      3366      3353      3355      3368      3366      3353      3355      3369
      3367      3353      3355      3368      3367      3353      3355      3369
      3376      3378      3380      3382      3376      3378      3380      3393
      3376      3378      3380      3394      3378      3380      3382      3384
      3378      3380      3382      3386      3380      3378      3376      3388
      3380      3378      3376      3389      3380      3378      3376      3390
      3380      3382      3384      3396      3380      3382      3386      3395
      3382      3380      3378      3391      3382      3380      3378      3392
      3384      3382      3380      3393      3384      3382      3380      3394
      3384      3382      3386      3395      3386      3382      3380      3393
      3386      3382      3380      3394      3386      3382      3384      3396
      3388      3376      3378      3391      3388      3376      3378      3392
      3389      3376      3378      3391      3389      3376      3378      3392
      3390      3376      3378      3391      3390      3376      3378      3392
      3391      3378      3380      3393      3391      3378      3380      3394
      3392      3378      3380      3393      3392      3378      3380      3394
      3401      3403      3405      3407      3401      3403      3405      3418
      3401      3403      3405      3419      3403      3405      3407      3409
      3403      3405      3407      3411      3405      3403      3401      3413
      3405      3403      3401      3414      3405      3403      3401      3415
      3405      3407      3409      3421      3405      3407      3411      3420
      3407      3405      3403      3416      3407      3405      3403      3417
      3409      3407      3405      3418      3409      3407      3405      3419
      3409      3407      3411      3420      3411      3407      3405      3418
      3411      3407      3405      3419      3411      3407      3409      3421
      3413      3401      3403      3416      3413      3401      3403      3417
      3414      3401      3403      3416      3414      3401      3403      3417
      3415      3401      3403      3416      3415      3401      3403      3417
      3416      3403      3405      3418      3416      3403      3405      3419
      3417      3403      3405      3418      3417      3403      3405      3419
      3426      3428      3430      3432      3426      3428      3430      3443
      3426      3428      3430      3444      3428      3430      3432      3434
      3428      3430      3432      3436      3430      3428      3426      3438
      3430      3428      3426      3439      3430      3428      3426      3440
      3430      3432      3434      3446      3430      3432      3436      3445
      3432      3430      3428      3441      3432      3430      3428      3442
      3434      3432      3430      3443      3434      3432      3430      3444
      3434      3432      3436      3445      3436      3432      3430      3443
      3436      3432      3430      3444      3436      3432      3434      3446
      3438      3426      3428      3441      3438      3426      3428      3442
      3439      3426      3428      3441      3439      3426      3428      3442
      3440      3426      3428      3441      3440      3426      3428      3442
      3441      3428      3430      3443      3441      3428      3430      3444
      3442      3428      3430      3443      3442      3428      3430      3444
      3451      3453      3455      3457      3451      3453      3455      3468
      3451      3453      3455      3469      3453      3455      3457      3459
      3453      3455      3457      3461      3455      3453      3451      3463
      3455      3453      3451      3464      3455      3453      3451      3465
      3455      3457      3459      3471      3455      3457      3461      3470
      3457      3455      3453      3466      3457      3455      3453      3467
      3459      3457      3455      3468      3459      3457      3455      3469
      3459      3457      3461      3470      3461      3457      3455      3468
      3461      3457      3455      3469      3461      3457      3459      3471
      3463      3451      3453      3466      3463      3451      3453      3467
      3464      3451      3453      3466      3464      3451      3453      3467
      3465      3451      3453      3466      3465      3451      3453      3467
      3466      3453      3455      3468      3466      3453      3455      3469
      3467      3453      3455      3468      3467      3453      3455      3469
      3476      3478      3480      3482      3476      3478      3480      3493
      3476      3478      3480      3494      3478      3480      3482      3484
      3478      3480      3482      3486      3480      3478      3476      3488
      3480      3478      3476      3489      3480      3478      3476      3490
      3480      3482      3484      3496      3480      3482      3486      3495
      3482      3480      3478      3491      3482      3480      3478      3492
      3484      3482      3480      3493      3484      3482      3480      3494
      3484      3482      3486      3495      3486      3482      3480      3493
      3486      3482      3480      3494      3486      3482      3484      3496
      3488      3476      3478      3491      3488      3476      3478      3492
      3489      3476      3478      3491      3489      3476      3478      3492
      3490      3476      3478      3491      3490      3476      3478      3492
      3491      3478      3480      3493      3491      3478      3480      3494
      3492      3478      3480      3493      3492      3478      3480      3494
      3501      3503      3505      3507      3501      3503      3505      3518
      3501      3503      3505      3519      3503      3505      3507      3509
      3503      3505      3507      3511      3505      3503      3501      3513
      3505      3503      3501      3514      3505      3503      3501      3515
      3505      3507      3509      3521      3505      3507      3511      3520
      3507      3505      3503      3516      3507      3505      3503      3517
      3509      3507      3505      3518      3509      3507      3505      3519
      3509      3507      3511      3520      3511      3507      3505      3518
      3511      3507      3505      3519      3511      3507      3509      3521
      3513      3501      3503      3516      3513      3501      3503      3517
      3514      3501      3503      3516      3514      3501      3503      3517
      3515      3501      3503      3516      3515      3501      3503      3517
      3516      3503      3505      3518      3516      3503      3505      3519
      3517      3503      3505      3518      3517      3503      3505      3519
      3526      3528      3530      3532      3526      3528      3530      3543
      3526      3528      3530      3544      3528      3530      3532      3534
      3528      3530      3532      3536      3530      3528      3526      3538
      3530      3528      3526      3539      3530      3528      3526      3540
      3530      3532      3534      3546      3530      3532      3536      3545
      3532      3530      3528      3541      3532      3530      3528      3542
      3534      3532      3530      3543      3534      3532      3530      3544
      3534      3532      3536      3545      3536      3532      3530      3543
      3536      3532      3530      3544      3536      3532      3534      3546
      3538      3526      3528      3541      3538      3526      3528      3542
      3539      3526      3528      3541      3539      3526      3528      3542
      3540      3526      3528      3541      3540      3526      3528      3542
      3541      3528      3530      3543      3541      3528      3530      3544
      3542      3528      3530      3543      3542      3528      3530      3544
      3551      3553      3555      3557      3551      3553      3555      3568
      3551      3553      3555      3569      3553      3555      3557      3559
      3553      3555      3557      3561      3555      3553      3551      3563
      3555      3553      3551      3564      3555      3553      3551      3565
      3555      3557      3559      3571      3555      3557      3561      3570
      3557      3555      3553      3566      3557      3555      3553      3567
      3559      3557      3555      3568      3559      3557      3555      3569
      3559      3557      3561      3570      3561      3557      3555      3568
      3561      3557      3555      3569      3561      3557      3559      3571
      3563      3551      3553      3566      3563      3551      3553      3567
      3564      3551      3553      3566      3564      3551      3553      3567
      3565      3551      3553      3566      3565      3551      3553      3567
      3566      3553      3555      3568      3566      3553      3555      3569
      3567      3553      3555      3568      3567      3553      3555      3569
      3576      3578      3580      3582      3576      3578      3580      3593
      3576      3578      3580      3594      3578      3580      3582      3584
      3578      3580      3582      3586      3580      3578      3576      3588
      3580      3578      3576      3589      3580      3578      3576      3590
      3580      3582      3584      3596      3580      3582      3586      3595
      3582      3580      3578      3591      3582      3580      3578      3592
      3584      3582      3580      3593      3584      3582      3580      3594
      3584      3582      3586      3595      3586      3582      3580      3593
      3586      3582      3580      3594      3586      3582      3584      3596
      3588      3576      3578      3591      3588      3576      3578      3592
      3589      3576      3578      3591      3589      3576      3578      3592
      3590      3576      3578      3591      3590      3576      3578      3592
      3591      3578      3580      3593      3591      3578      3580      3594
      3592      3578      3580      3593      3592      3578      3580      3594
      3601      3603      3605      3607      3601      3603      3605      3618
      3601      3603      3605      3619      3603      3605      3607      3609
      3603      3605      3607      3611      3605      3603      3601      3613
      3605      3603      3601      3614      3605      3603      3601      3615
      3605      3607      3609      3621      3605      3607      3611      3620
      3607      3605      3603      3616      3607      3605      3603      3617
      3609      3607      3605      3618      3609      3607      3605      3619
      3609      3607      3611      3620      3611      3607      3605      3618
      3611      3607      3605      3619      3611      3607      3609      3621
      3613      3601      3603      3616      3613      3601      3603      3617
      3614      3601      3603      3616      3614      3601      3603      3617
      3615      3601      3603      3616      3615      3601      3603      3617
      3616      3603      3605      3618      3616      3603      3605      3619
      3617      3603      3605      3618      3617      3603      3605      3619
      3626      3628      3630      3632      3626      3628      3630      3643
      3626      3628      3630      3644      3628      3630      3632      3634
      3628      3630      3632      3636      3630      3628      3626      3638
      3630      3628      3626      3639      3630      3628      3626      3640
      3630      3632      3634      3646      3630      3632      3636      3645
      3632      3630      3628      3641      3632      3630      3628      3642
      3634      3632      3630      3643      3634      3632      3630      3644
      3634      3632      3636      3645      3636      3632      3630      3643
      3636      3632      3630      3644      3636      3632      3634      3646
      3638      3626      3628      3641      3638      3626      3628      3642
      3639      3626      3628      3641      3639      3626      3628      3642
      3640      3626      3628      3641      3640      3626      3628      3642
      3641      3628      3630      3643      3641      3628      3630      3644
      3642      3628      3630      3643      3642      3628      3630      3644
      3651      3653      3655      3657      3651      3653      3655      3668
      3651      3653      3655      3669      3653      3655      3657      3659
      3653      3655      3657      3661      3655      3653      3651      3663
      3655      3653      3651      3664      3655      3653      3651      3665
      3655      3657      3659      3671      3655      3657      3661      3670
      3657      3655      3653      3666      3657      3655      3653      3667
      3659      3657      3655      3668      3659      3657      3655      3669
      3659      3657      3661      3670      3661      3657      3655      3668
      3661      3657      3655      3669      3661      3657      3659      3671
      3663      3651      3653      3666      3663      3651      3653      3667
      3664      3651      3653      3666      3664      3651      3653      3667
      3665      3651      3653      3666      3665      3651      3653      3667
      3666      3653      3655      3668      3666      3653      3655      3669
      3667      3653      3655      3668      3667      3653      3655      3669
      3676      3678      3680      3682      3676      3678      3680      3693
      3676      3678      3680      3694      3678      3680      3682      3684
      3678      3680      3682      3686      3680      3678      3676      3688
      3680      3678      3676      3689      3680      3678      3676      3690
      3680      3682      3684      3696      3680      3682      3686      3695
      3682      3680      3678      3691      3682      3680      3678      3692
      3684      3682      3680      3693      3684      3682      3680      3694
      3684      3682      3686      3695      3686      3682      3680      3693
      3686      3682      3680      3694      3686      3682      3684      3696
      3688      3676      3678      3691      3688      3676      3678      3692
      3689      3676      3678      3691      3689      3676      3678      3692
      3690      3676      3678      3691      3690      3676      3678      3692
      3691      3678      3680      3693      3691      3678      3680      3694
      3692      3678      3680      3693      3692      3678      3680      3694
      3701      3703      3705      3707      3701      3703      3705      3718
      3701      3703      3705      3719      3703      3705      3707      3709
      3703      3705      3707      3711      3705      3703      3701      3713
      3705      3703      3701      3714      3705      3703      3701      3715
      3705      3707      3709      3721      3705      3707      3711      3720
      3707      3705      3703      3716      3707      3705      3703      3717
      3709      3707      3705      3718      3709      3707      3705      3719
      3709      3707      3711      3720      3711      3707      3705      3718
      3711      3707      3705      3719      3711      3707      3709      3721
      3713      3701      3703      3716      3713      3701      3703      3717
      3714      3701      3703      3716      3714      3701      3703      3717
      3715      3701      3703      3716      3715      3701      3703      3717
      3716      3703      3705      3718      3716      3703      3705      3719
      3717      3703      3705      3718      3717      3703      3705      3719
      3726      3728      3730      3732      3726      3728      3730      3743
      3726      3728      3730      3744      3728      3730      3732      3734
      3728      3730      3732      3736      3730      3728      3726      3738
      3730      3728      3726      3739      3730      3728      3726      3740
      3730      3732      3734      3746      3730      3732      3736      3745
      3732      3730      3728      3741      3732      3730      3728      3742
      3734      3732      3730      3743      3734      3732      3730      3744
      3734      3732      3736      3745      3736      3732      3730      3743
      3736      3732      3730      3744      3736      3732      3734      3746
      3738      3726      3728      3741      3738      3726      3728      3742
      3739      3726      3728      3741      3739      3726      3728      3742
      3740      3726      3728      3741      3740      3726      3728      3742
      3741      3728      3730      3743      3741      3728      3730      3744
      3742      3728      3730      3743      3742      3728      3730      3744
      3751      3753      3755      3757      3751      3753      3755      3768
      3751      3753      3755      3769      3753      3755      3757      3759
      3753      3755      3757      3761      3755      3753      3751      3763
      3755      3753      3751      3764      3755      3753      3751      3765
      3755      3757      3759      3771      3755      3757      3761      3770
      3757      3755      3753      3766      3757      3755      3753      3767
      3759      3757      3755      3768      3759      3757      3755      3769
      3759      3757      3761      3770      3761      3757      3755      3768
      3761      3757      3755      3769      3761      3757      3759      3771
      3763      3751      3753      3766      3763      3751      3753      3767
      3764      3751      3753      3766      3764      3751      3753      3767
      3765      3751      3753      3766      3765      3751      3753      3767
      3766      3753      3755      3768      3766      3753      3755      3769
      3767      3753      3755      3768      3767      3753      3755      3769
      3776      3778      3780      3782      3776      3778      3780      3793
      3776      3778      3780      3794      3778      3780      3782      3784
      3778      3780      3782      3786      3780      3778      3776      3788
      3780      3778      3776      3789      3780      3778      3776      3790
      3780      3782      3784      3796      3780      3782      3786      3795
      3782      3780      3778      3791      3782      3780      3778      3792
      3784      3782      3780      3793      3784      3782      3780      3794
      3784      3782      3786      3795      3786      3782      3780      3793
      3786      3782      3780      3794      3786      3782      3784      3796
      3788      3776      3778      3791      3788      3776      3778      3792
      3789      3776      3778      3791      3789      3776      3778      3792
      3790      3776      3778      3791      3790      3776      3778      3792
      3791      3778      3780      3793      3791      3778      3780      3794
      3792      3778      3780      3793      3792      3778      3780      3794
      3801      3803      3805      3807      3801      3803      3805      3818
      3801      3803      3805      3819      3803      3805      3807      3809
      3803      3805      3807      3811      3805      3803      3801      3813
      3805      3803      3801      3814      3805      3803      3801      3815
      3805      3807      3809      3821      3805      3807      3811      3820
      3807      3805      3803      3816      3807      3805      3803      3817
      3809      3807      3805      3818      3809      3807      3805      3819
      3809      3807      3811      3820      3811      3807      3805      3818
      3811      3807      3805      3819      3811      3807      3809      3821
      3813      3801      3803      3816      3813      3801      3803      3817
      3814      3801      3803      3816      3814      3801      3803      3817
      3815      3801      3803      3816      3815      3801      3803      3817
      3816      3803      3805      3818      3816      3803      3805      3819
      3817      3803      3805      3818      3817      3803      3805      3819
      3826      3828      3830      3832      3826      3828      3830      3843
      3826      3828      3830      3844      3828      3830      3832      3834
      3828      3830      3832      3836      3830      3828      3826      3838
      3830      3828      3826      3839      3830      3828      3826      3840
      3830      3832      3834      3846      3830      3832      3836      3845
      3832      3830      3828      3841      3832      3830      3828      3842
      3834      3832      3830      3843      3834      3832      3830      3844
      3834      3832      3836      3845      3836      3832      3830      3843
      3836      3832      3830      3844      3836      3832      3834      3846
      3838      3826      3828      3841      3838      3826      3828      3842
      3839      3826      3828      3841      3839      3826      3828      3842
      3840      3826      3828      3841      3840      3826      3828      3842
      3841      3828      3830      3843      3841      3828      3830      3844
      3842      3828      3830      3843      3842      3828      3830      3844
      3851      3853      3855      3857      3851      3853      3855      3868
      3851      3853      3855      3869      3853      3855      3857      3859
      3853      3855      3857      3861      3855      3853      3851      3863
      3855      3853      3851      3864      3855      3853      3851      3865
      3855      3857      3859      3871      3855      3857      3861      3870
      3857      3855      3853      3866      3857      3855      3853      3867
      3859      3857      3855      3868      3859      3857      3855      3869
      3859      3857      3861      3870      3861      3857      3855      3868
      3861      3857      3855      3869      3861      3857      3859      3871
      3863      3851      3853      3866      3863      3851      3853      3867
      3864      3851      3853      3866      3864      3851      3853      3867
      3865      3851      3853      3866      3865      3851      3853      3867
      3866      3853      3855      3868      3866      3853      3855      3869
      3867      3853      3855      3868      3867      3853      3855      3869
      3876      3878      3880      3882      3876      3878      3880      3893
      3876      3878      3880      3894      3878      3880      3882      3884
      3878      3880      3882      3886      3880      3878      3876      3888
      3880      3878      3876      3889      3880      3878      3876      3890
      3880      3882      3884      3896      3880      3882      3886      3895
      3882      3880      3878      3891      3882      3880      3878      3892
      3884      3882      3880      3893      3884      3882      3880      3894
      3884      3882      3886      3895      3886      3882      3880      3893
      3886      3882      3880      3894      3886      3882      3884      3896
      3888      3876      3878      3891      3888      3876      3878      3892
      3889      3876      3878      3891      3889      3876      3878      3892
      3890      3876      3878      3891      3890      3876      3878      3892
      3891      3878      3880      3893      3891      3878      3880      3894
      3892      3878      3880      3893      3892      3878      3880      3894
      3901      3903      3905      3907      3901      3903      3905      3918
      3901      3903      3905      3919      3903      3905      3907      3909
      3903      3905      3907      3911      3905      3903      3901      3913
      3905      3903      3901      3914      3905      3903      3901      3915
      3905      3907      3909      3921      3905      3907      3911      3920
      3907      3905      3903      3916      3907      3905      3903      3917
      3909      3907      3905      3918      3909      3907      3905      3919
      3909      3907      3911      3920      3911      3907      3905      3918
      3911      3907      3905      3919      3911      3907      3909      3921
      3913      3901      3903      3916      3913      3901      3903      3917
      3914      3901      3903      3916      3914      3901      3903      3917
      3915      3901      3903      3916      3915      3901      3903      3917
      3916      3903      3905      3918      3916      3903      3905      3919
      3917      3903      3905      3918      3917      3903      3905      3919
      3926      3928      3930      3932      3926      3928      3930      3943
      3926      3928      3930      3944      3928      3930      3932      3934
      3928      3930      3932      3936      3930      3928      3926      3938
      3930      3928      3926      3939      3930      3928      3926      3940
      3930      3932      3934      3946      3930      3932      3936      3945
      3932      3930      3928      3941      3932      3930      3928      3942
      3934      3932      3930      3943      3934      3932      3930      3944
      3934      3932      3936      3945      3936      3932      3930      3943
      3936      3932      3930      3944      3936      3932      3934      3946
      3938      3926      3928      3941      3938      3926      3928      3942
      3939      3926      3928      3941      3939      3926      3928      3942
      3940      3926      3928      3941      3940      3926      3928      3942
      3941      3928      3930      3943      3941      3928      3930      3944
      3942      3928      3930      3943      3942      3928      3930      3944
      3951      3953      3955      3957      3951      3953      3955      3968
      3951      3953      3955      3969      3953      3955      3957      3959
      3953      3955      3957      3961      3955      3953      3951      3963
      3955      3953      3951      3964      3955      3953      3951      3965
      3955      3957      3959      3971      3955      3957      3961      3970
      3957      3955      3953      3966      3957      3955      3953      3967
      3959      3957      3955      3968      3959      3957      3955      3969
      3959      3957      3961      3970      3961      3957      3955      3968
      3961      3957      3955      3969      3961      3957      3959      3971
      3963      3951      3953      3966      3963      3951      3953      3967
      3964      3951      3953      3966      3964      3951      3953      3967
      3965      3951      3953      3966      3965      3951      3953      3967
      3966      3953      3955      3968      3966      3953      3955      3969
      3967      3953      3955      3968      3967      3953      3955      3969
      3976      3978      3980      3982      3976      3978      3980      3993
      3976      3978      3980      3994      3978      3980      3982      3984
      3978      3980      3982      3986      3980      3978      3976      3988
      3980      3978      3976      3989      3980      3978      3976      3990
      3980      3982      3984      3996      3980      3982      3986      3995
      3982      3980      3978      3991      3982      3980      3978      3992
      3984      3982      3980      3993      3984      3982      3980      3994
      3984      3982      3986      3995      3986      3982      3980      3993
      3986      3982      3980      3994      3986      3982      3984      3996
      3988      3976      3978      3991      3988      3976      3978      3992
      3989      3976      3978      3991      3989      3976      3978      3992
      3990      3976      3978      3991      3990      3976      3978      3992
      3991      3978      3980      3993      3991      3978      3980      3994
      3992      3978      3980      3993      3992      3978      3980      3994
      4001      4003      4005      4007      4001      4003      4005      4018
      4001      4003      4005      4019      4003      4005      4007      4009
      4003      4005      4007      4011      4005      4003      4001      4013
      4005      4003      4001      4014      4005      4003      4001      4015
      4005      4007      4009      4021      4005      4007      4011      4020
      4007      4005      4003      4016      4007      4005      4003      4017
      4009      4007      4005      4018      4009      4007      4005      4019
      4009      4007      4011      4020      4011      4007      4005      4018
      4011      4007      4005      4019      4011      4007      4009      4021
      4013      4001      4003      4016      4013      4001      4003      4017
      4014      4001      4003      4016      4014      4001      4003      4017
      4015      4001      4003      4016      4015      4001      4003      4017
      4016      4003      4005      4018      4016      4003      4005      4019
      4017      4003      4005      4018      4017      4003      4005      4019
      4026      4028      4030      4032      4026      4028      4030      4043
      4026      4028      4030      4044      4028      4030      4032      4034
      4028      4030      4032      4036      4030      4028      4026      4038
      4030      4028      4026      4039      4030      4028      4026      4040
      4030      4032      4034      4046      4030      4032      4036      4045
      4032      4030      4028      4041      4032      4030      4028      4042
      4034      4032      4030      4043      4034      4032      4030      4044
      4034      4032      4036      4045      4036      4032      4030      4043
      4036      4032      4030      4044      4036      4032      4034      4046
      4038      4026      4028      4041      4038      4026      4028      4042
      4039      4026      4028      4041      4039      4026      4028      4042
      4040      4026      4028      4041      4040      4026      4028      4042
      4041      4028      4030      4043      4041      4028      4030      4044
      4042      4028      4030      4043      4042      4028      4030      4044
      4051      4053      4055      4057      4051      4053      4055      4068
      4051      4053      4055      4069      4053      4055      4057      4059
      4053      4055      4057      4061      4055      4053      4051      4063
      4055      4053      4051      4064      4055      4053      4051      4065
      4055      4057      4059      4071      4055      4057      4061      4070
      4057      4055      4053      4066      4057      4055      4053      4067
      4059      4057      4055      4068      4059      4057      4055      4069
      4059      4057      4061      4070      4061      4057      4055      4068
      4061      4057      4055      4069      4061      4057      4059      4071
      4063      4051      4053      4066      4063      4051      4053      4067
      4064      4051      4053      4066      4064      4051      4053      4067
      4065      4051      4053      4066      4065      4051      4053      4067
      4066      4053      4055      4068      4066      4053      4055      4069
      4067      4053      4055      4068      4067      4053      4055      4069
      4076      4078      4080      4082      4076      4078      4080      4093
      4076      4078      4080      4094      4078      4080      4082      4084
      4078      4080      4082      4086      4080      4078      4076      4088
      4080      4078      4076      4089      4080      4078      4076      4090
      4080      4082      4084      4096      4080      4082      4086      4095
      4082      4080      4078      4091      4082      4080      4078      4092
      4084      4082      4080      4093      4084      4082      4080      4094
      4084      4082      4086      4095      4086      4082      4080      4093
      4086      4082      4080      4094      4086      4082      4084      4096
      4088      4076      4078      4091      4088      4076      4078      4092
      4089      4076      4078      4091      4089      4076      4078      4092
      4090      4076      4078      4091      4090      4076      4078      4092
      4091      4078      4080      4093      4091      4078      4080      4094
      4092      4078      4080      4093      4092      4078      4080      4094
      4101      4103      4105      4107      4101      4103      4105      4118
      4101      4103      4105      4119      4103      4105      4107      4109
      4103      4105      4107      4111      4105      4103      4101      4113
      4105      4103      4101      4114      4105      4103      4101      4115
      4105      4107      4109      4121      4105      4107      4111      4120
      4107      4105      4103      4116      4107      4105      4103      4117
      4109      4107      4105      4118      4109      4107      4105      4119
      4109      4107      4111      4120      4111      4107      4105      4118
      4111      4107      4105      4119      4111      4107      4109      4121
      4113      4101      4103      4116      4113      4101      4103      4117
      4114      4101      4103      4116      4114      4101      4103      4117
      4115      4101      4103      4116      4115      4101      4103      4117
      4116      4103      4105      4118      4116      4103      4105      4119
      4117      4103      4105      4118      4117      4103      4105      4119
      4126      4128      4130      4132      4126      4128      4130      4143
      4126      4128      4130      4144      4128      4130      4132      4134
      4128      4130      4132      4136      4130      4128      4126      4138
      4130      4128      4126      4139      4130      4128      4126      4140
      4130      4132      4134      4146      4130      4132      4136      4145
      4132      4130      4128      4141      4132      4130      4128      4142
      4134      4132      4130      4143      4134      4132      4130      4144
      4134      4132      4136      4145      4136      4132      4130      4143
      4136      4132      4130      4144      4136      4132      4134      4146
      4138      4126      4128      4141      4138      4126      4128      4142
      4139      4126      4128      4141      4139      4126      4128      4142
      4140      4126      4128      4141      4140      4126      4128      4142
      4141      4128      4130      4143      4141      4128      4130      4144
      4142      4128      4130      4143      4142      4128      4130      4144
      4151      4153      4155      4157      4151      4153      4155      4168
      4151      4153      4155      4169      4153      4155      4157      4159
      4153      4155      4157      4161      4155      4153      4151      4163
      4155      4153      4151      4164      4155      4153      4151      4165
      4155      4157      4159      4171      4155      4157      4161      4170
      4157      4155      4153      4166      4157      4155      4153      4167
      4159      4157      4155      4168      4159      4157      4155      4169
      4159      4157      4161      4170      4161      4157      4155      4168
      4161      4157      4155      4169      4161      4157      4159      4171
      4163      4151      4153      4166      4163      4151      4153      4167
      4164      4151      4153      4166      4164      4151      4153      4167
      4165      4151      4153      4166      4165      4151      4153      4167
      4166      4153      4155      4168      4166      4153      4155      4169
      4167      4153      4155      4168      4167      4153      4155      4169
      4176      4178      4180      4182      4176      4178      4180      4193
      4176      4178      4180      4194      4178      4180      4182      4184
      4178      4180      4182      4186      4180      4178      4176      4188
      4180      4178      4176      4189      4180      4178      4176      4190
      4180      4182      4184      4196      4180      4182      4186      4195
      4182      4180      4178      4191      4182      4180      4178      4192
      4184      4182      4180      4193      4184      4182      4180      4194
      4184      4182      4186      4195      4186      4182      4180      4193
      4186      4182      4180      4194      4186      4182      4184      4196
      4188      4176      4178      4191      4188      4176      4178      4192
      4189      4176      4178      4191      4189      4176      4178      4192
      4190      4176      4178      4191      4190      4176      4178      4192
      4191      4178      4180      4193      4191      4178      4180      4194
      4192      4178      4180      4193      4192      4178      4180      4194
      4201      4203      4205      4207      4201      4203      4205      4218
      4201      4203      4205      4219      4203      4205      4207      4209
      4203      4205      4207      4211      4205      4203      4201      4213
      4205      4203      4201      4214      4205      4203      4201      4215
      4205      4207      4209      4221      4205      4207      4211      4220
      4207      4205      4203      4216      4207      4205      4203      4217
      4209      4207      4205      4218      4209      4207      4205      4219
      4209      4207      4211      4220      4211      4207      4205      4218
      4211      4207      4205      4219      4211      4207      4209      4221
      4213      4201      4203      4216      4213      4201      4203      4217
      4214      4201      4203      4216      4214      4201      4203      4217
      4215      4201      4203      4216      4215      4201      4203      4217
      4216      4203      4205      4218      4216      4203      4205      4219
      4217      4203      4205      4218      4217      4203      4205      4219
      4226      4228      4230      4232      4226      4228      4230      4243
      4226      4228      4230      4244      4228      4230      4232      4234
      4228      4230      4232      4236      4230      4228      4226      4238
      4230      4228      4226      4239      4230      4228      4226      4240
      4230      4232      4234      4246      4230      4232      4236      4245
      4232      4230      4228      4241      4232      4230      4228      4242
      4234      4232      4230      4243      4234      4232      4230      4244
      4234      4232      4236      4245      4236      4232      4230      4243
      4236      4232      4230      4244      4236      4232      4234      4246
      4238      4226      4228      4241      4238      4226      4228      4242
      4239      4226      4228      4241      4239      4226      4228      4242
      4240      4226      4228      4241      4240      4226      4228      4242
      4241      4228      4230      4243      4241      4228      4230      4244
      4242      4228      4230      4243      4242      4228      4230      4244
      4251      4253      4255      4257      4251      4253      4255      4268
      4251      4253      4255      4269      4253      4255      4257      4259
      4253      4255      4257      4261      4255      4253      4251      4263
      4255      4253      4251      4264      4255      4253      4251      4265
      4255      4257      4259      4271      4255      4257      4261      4270
      4257      4255      4253      4266      4257      4255      4253      4267
      4259      4257      4255      4268      4259      4257      4255      4269
      4259      4257      4261      4270      4261      4257      4255      4268
      4261      4257      4255      4269      4261      4257      4259      4271
      4263      4251      4253      4266      4263      4251      4253      4267
      4264      4251      4253      4266      4264      4251      4253      4267
      4265      4251      4253      4266      4265      4251      4253      4267
      4266      4253      4255      4268      4266      4253      4255      4269
      4267      4253      4255      4268      4267      4253      4255      4269
      4276      4278      4280      4282      4276      4278      4280      4293
      4276      4278      4280      4294      4278      4280      4282      4284
      4278      4280      4282      4286      4280      4278      4276      4288
      4280      4278      4276      4289      4280      4278      4276      4290
      4280      4282      4284      4296      4280      4282      4286      4295
      4282      4280      4278      4291      4282      4280      4278      4292
      4284      4282      4280      4293      4284      4282      4280      4294
      4284      4282      4286      4295      4286      4282      4280      4293
      4286      4282      4280      4294      4286      4282      4284      4296
      4288      4276      4278      4291      4288      4276      4278      4292
      4289      4276      4278      4291      4289      4276      4278      4292
      4290      4276      4278      4291      4290      4276      4278      4292
      4291      4278      4280      4293      4291      4278      4280      4294
      4292      4278      4280      4293      4292      4278      4280      4294
      4301      4303      4305      4307      4301      4303      4305      4318
      4301      4303      4305      4319      4303      4305      4307      4309
      4303      4305      4307      4311      4305      4303      4301      4313
      4305      4303      4301      4314      4305      4303      4301      4315
      4305      4307      4309      4321      4305      4307      4311      4320
      4307      4305      4303      4316      4307      4305      4303      4317
      4309      4307      4305      4318      4309      4307      4305      4319
      4309      4307      4311      4320      4311      4307      4305      4318
      4311      4307      4305      4319      4311      4307      4309      4321
      4313      4301      4303      4316      4313      4301      4303      4317
      4314      4301      4303      4316      4314      4301      4303      4317
      4315      4301      4303      4316      4315      4301      4303      4317
      4316      4303      4305      4318      4316      4303      4305      4319
      4317      4303      4305      4318      4317      4303      4305      4319
      4326      4328      4330      4332      4326      4328      4330      4343
      4326      4328      4330      4344      4328      4330      4332      4334
      4328      4330      4332      4336      4330      4328      4326      4338
      4330      4328      4326      4339      4330      4328      4326      4340
      4330      4332      4334      4346      4330      4332      4336      4345
      4332      4330      4328      4341      4332      4330      4328      4342
      4334      4332      4330      4343      4334      4332      4330      4344
      4334      4332      4336      4345      4336      4332      4330      4343
      4336      4332      4330      4344      4336      4332      4334      4346
      4338      4326      4328      4341      4338      4326      4328      4342
      4339      4326      4328      4341      4339      4326      4328      4342
      4340      4326      4328      4341      4340      4326      4328      4342
      4341      4328      4330      4343      4341      4328      4330      4344
      4342      4328      4330      4343      4342      4328      4330      4344
      4351      4353      4355      4357      4351      4353      4355      4368
      4351      4353      4355      4369      4353      4355      4357      4359
      4353      4355      4357      4361      4355      4353      4351      4363
      4355      4353      4351      4364      4355      4353      4351      4365
      4355      4357      4359      4371      4355      4357      4361      4370
      4357      4355      4353      4366      4357      4355      4353      4367
      4359      4357      4355      4368      4359      4357      4355      4369
      4359      4357      4361      4370      4361      4357      4355      4368
      4361      4357      4355      4369      4361      4357      4359      4371
      4363      4351      4353      4366      4363      4351      4353      4367
      4364      4351      4353      4366      4364      4351      4353      4367
      4365      4351      4353      4366      4365      4351      4353      4367
      4366      4353      4355      4368      4366      4353      4355      4369
      4367      4353      4355      4368      4367      4353      4355      4369
      4376      4378      4380      4382      4376      4378      4380      4393
      4376      4378      4380      4394      4378      4380      4382      4384
      4378      4380      4382      4386      4380      4378      4376      4388
      4380      4378      4376      4389      4380      4378      4376      4390
      4380      4382      4384      4396      4380      4382      4386      4395
      4382      4380      4378      4391      4382      4380      4378      4392
      4384      4382      4380      4393      4384      4382      4380      4394
      4384      4382      4386      4395      4386      4382      4380      4393
      4386      4382      4380      4394      4386      4382      4384      4396
      4388      4376      4378      4391      4388      4376      4378      4392
      4389      4376      4378      4391      4389      4376      4378      4392
      4390      4376      4378      4391      4390      4376      4378      4392
      4391      4378      4380      4393      4391      4378      4380      4394
      4392      4378      4380      4393      4392      4378      4380      4394
      4401      4403      4405      4407      4401      4403      4405      4418
      4401      4403      4405      4419      4403      4405      4407      4409
      4403      4405      4407      4411      4405      4403      4401      4413
      4405      4403      4401      4414      4405      4403      4401      4415
      4405      4407      4409      4421      4405      4407      4411      4420
      4407      4405      4403      4416      4407      4405      4403      4417
      4409      4407      4405      4418      4409      4407      4405      4419
      4409      4407      4411      4420      4411      4407      4405      4418
      4411      4407      4405      4419      4411      4407      4409      4421
      4413      4401      4403      4416      4413      4401      4403      4417
      4414      4401      4403      4416      4414      4401      4403      4417
      4415      4401      4403      4416      4415      4401      4403      4417
      4416      4403      4405      4418      4416      4403      4405      4419
      4417      4403      4405      4418      4417      4403      4405      4419
      4426      4428      4430      4432      4426      4428      4430      4443
      4426      4428      4430      4444      4428      4430      4432      4434
      4428      4430      4432      4436      4430      4428      4426      4438
      4430      4428      4426      4439      4430      4428      4426      4440
      4430      4432      4434      4446      4430      4432      4436      4445
      4432      4430      4428      4441      4432      4430      4428      4442
      4434      4432      4430      4443      4434      4432      4430      4444
      4434      4432      4436      4445      4436      4432      4430      4443
      4436      4432      4430      4444      4436      4432      4434      4446
      4438      4426      4428      4441      4438      4426      4428      4442
      4439      4426      4428      4441      4439      4426      4428      4442
      4440      4426      4428      4441      4440      4426      4428      4442
      4441      4428      4430      4443      4441      4428      4430      4444
      4442      4428      4430      4443      4442      4428      4430      4444
      4451      4453      4455      4457      4451      4453      4455      4468
      4451      4453      4455      4469      4453      4455      4457      4459
      4453      4455      4457      4461      4455      4453      4451      4463
      4455      4453      4451      4464      4455      4453      4451      4465
      4455      4457      4459      4471      4455      4457      4461      4470
      4457      4455      4453      4466      4457      4455      4453      4467
      4459      4457      4455      4468      4459      4457      4455      4469
      4459      4457      4461      4470      4461      4457      4455      4468
      4461      4457      4455      4469      4461      4457      4459      4471
      4463      4451      4453      4466      4463      4451      4453      4467
      4464      4451      4453      4466      4464      4451      4453      4467
      4465      4451      4453      4466      4465      4451      4453      4467
      4466      4453      4455      4468      4466      4453      4455      4469
      4467      4453      4455      4468      4467      4453      4455      4469
      4476      4478      4480      4482      4476      4478      4480      4493
      4476      4478      4480      4494      4478      4480      4482      4484
      4478      4480      4482      4486      4480      4478      4476      4488
      4480      4478      4476      4489      4480      4478      4476      4490
      4480      4482      4484      4496      4480      4482      4486      4495
      4482      4480      4478      4491      4482      4480      4478      4492
      4484      4482      4480      4493      4484      4482      4480      4494
      4484      4482      4486      4495      4486      4482      4480      4493
      4486      4482      4480      4494      4486      4482      4484      4496
      4488      4476      4478      4491      4488      4476      4478      4492
      4489      4476      4478      4491      4489      4476      4478      4492
      4490      4476      4478      4491      4490      4476      4478      4492
      4491      4478      4480      4493      4491      4478      4480      4494
      4492      4478      4480      4493      4492      4478      4480      4494
      4501      4503      4505      4507      4501      4503      4505      4518
      4501      4503      4505      4519      4503      4505      4507      4509
      4503      4505      4507      4511      4505      4503      4501      4513
      4505      4503      4501      4514      4505      4503      4501      4515
      4505      4507      4509      4521      4505      4507      4511      4520
      4507      4505      4503      4516      4507      4505      4503      4517
      4509      4507      4505      4518      4509      4507      4505      4519
      4509      4507      4511      4520      4511      4507      4505      4518
      4511      4507      4505      4519      4511      4507      4509      4521
      4513      4501      4503      4516      4513      4501      4503      4517
      4514      4501      4503      4516      4514      4501      4503      4517
      4515      4501      4503      4516      4515      4501      4503      4517
      4516      4503      4505      4518      4516      4503      4505      4519
      4517      4503      4505      4518      4517      4503      4505      4519
      4526      4528      4530      4532      4526      4528      4530      4543
      4526      4528      4530      4544      4528      4530      4532      4534
      4528      4530      4532      4536      4530      4528      4526      4538
      4530      4528      4526      4539      4530      4528      4526      4540
      4530      4532      4534      4546      4530      4532      4536      4545
      4532      4530      4528      4541      4532      4530      4528      4542
      4534      4532      4530      4543      4534      4532      4530      4544
      4534      4532      4536      4545      4536      4532      4530      4543
      4536      4532      4530      4544      4536      4532      4534      4546
      4538      4526      4528      4541      4538      4526      4528      4542
      4539      4526      4528      4541      4539      4526      4528      4542
      4540      4526      4528      4541      4540      4526      4528      4542
      4541      4528      4530      4543      4541      4528      4530      4544
      4542      4528      4530      4543      4542      4528      4530      4544
      4551      4553      4555      4557      4551      4553      4555      4568
      4551      4553      4555      4569      4553      4555      4557      4559
      4553      4555      4557      4561      4555      4553      4551      4563
      4555      4553      4551      4564      4555      4553      4551      4565
      4555      4557      4559      4571      4555      4557      4561      4570
      4557      4555      4553      4566      4557      4555      4553      4567
      4559      4557      4555      4568      4559      4557      4555      4569
      4559      4557      4561      4570      4561      4557      4555      4568
      4561      4557      4555      4569      4561      4557      4559      4571
      4563      4551      4553      4566      4563      4551      4553      4567
      4564      4551      4553      4566      4564      4551      4553      4567
      4565      4551      4553      4566      4565      4551      4553      4567
      4566      4553      4555      4568      4566      4553      4555      4569
      4567      4553      4555      4568      4567      4553      4555      4569
      4576      4578      4580      4582      4576      4578      4580      4593
      4576      4578      4580      4594      4578      4580      4582      4584
      4578      4580      4582      4586      4580      4578      4576      4588
      4580      4578      4576      4589      4580      4578      4576      4590
      4580      4582      4584      4596      4580      4582      4586      4595
      4582      4580      4578      4591      4582      4580      4578      4592
      4584      4582      4580      4593      4584      4582      4580      4594
      4584      4582      4586      4595      4586      4582      4580      4593
      4586      4582      4580      4594      4586      4582      4584      4596
      4588      4576      4578      4591      4588      4576      4578      4592
      4589      4576      4578      4591      4589      4576      4578      4592
      4590      4576      4578      4591      4590      4576      4578      4592
      4591      4578      4580      4593      4591      4578      4580      4594
      4592      4578      4580      4593      4592      4578      4580      4594
      4601      4603      4605      4607      4601      4603      4605      4618
      4601      4603      4605      4619      4603      4605      4607      4609
      4603      4605      4607      4611      4605      4603      4601      4613
      4605      4603      4601      4614      4605      4603      4601      4615
      4605      4607      4609      4621      4605      4607      4611      4620
      4607      4605      4603      4616      4607      4605      4603      4617
      4609      4607      4605      4618      4609      4607      4605      4619
      4609      4607      4611      4620      4611      4607      4605      4618
      4611      4607      4605      4619      4611      4607      4609      4621
      4613      4601      4603      4616      4613      4601      4603      4617
      4614      4601      4603      4616      4614      4601      4603      4617
      4615      4601      4603      4616      4615      4601      4603      4617
      4616      4603      4605      4618      4616      4603      4605      4619
      4617      4603      4605      4618      4617      4603      4605      4619
      4626      4628      4630      4632      4626      4628      4630      4643
      4626      4628      4630      4644      4628      4630      4632      4634
      4628      4630      4632      4636      4630      4628      4626      4638
      4630      4628      4626      4639      4630      4628      4626      4640
      4630      4632      4634      4646      4630      4632      4636      4645
      4632      4630      4628      4641      4632      4630      4628      4642
      4634      4632      4630      4643      4634      4632      4630      4644
      4634      4632      4636      4645      4636      4632      4630      4643
      4636      4632      4630      4644      4636      4632      4634      4646
      4638      4626      4628      4641      4638      4626      4628      4642
      4639      4626      4628      4641      4639      4626      4628      4642
      4640      4626      4628      4641      4640      4626      4628      4642
      4641      4628      4630      4643      4641      4628      4630      4644
      4642      4628      4630      4643      4642      4628      4630      4644
      4651      4653      4655      4657      4651      4653      4655      4668
      4651      4653      4655      4669      4653      4655      4657      4659
      4653      4655      4657      4661      4655      4653      4651      4663
      4655      4653      4651      4664      4655      4653      4651      4665
      4655      4657      4659      4671      4655      4657      4661      4670
      4657      4655      4653      4666      4657      4655      4653      4667
      4659      4657      4655      4668      4659      4657      4655      4669
      4659      4657      4661      4670      4661      4657      4655      4668
      4661      4657      4655      4669      4661      4657      4659      4671
      4663      4651      4653      4666      4663      4651      4653      4667
      4664      4651      4653      4666      4664      4651      4653      4667
      4665      4651      4653      4666      4665      4651      4653      4667
      4666      4653      4655      4668      4666      4653      4655      4669
      4667      4653      4655      4668      4667      4653      4655      4669
      4676      4678      4680      4682      4676      4678      4680      4693
      4676      4678      4680      4694      4678      4680      4682      4684
      4678      4680      4682      4686      4680      4678      4676      4688
      4680      4678      4676      4689      4680      4678      4676      4690
      4680      4682      4684      4696      4680      4682      4686      4695
      4682      4680      4678      4691      4682      4680      4678      4692
      4684      4682      4680      4693      4684      4682      4680      4694
      4684      4682      4686      4695      4686      4682      4680      4693
      4686      4682      4680      4694      4686      4682      4684      4696
      4688      4676      4678      4691      4688      4676      4678      4692
      4689      4676      4678      4691      4689      4676      4678      4692
      4690      4676      4678      4691      4690      4676      4678      4692
      4691      4678      4680      4693      4691      4678      4680      4694
      4692      4678      4680      4693      4692      4678      4680      4694
      4701      4703      4705      4707      4701      4703      4705      4718
      4701      4703      4705      4719      4703      4705      4707      4709
      4703      4705      4707      4711      4705      4703      4701      4713
      4705      4703      4701      4714      4705      4703      4701      4715
      4705      4707      4709      4721      4705      4707      4711      4720
      4707      4705      4703      4716      4707      4705      4703      4717
      4709      4707      4705      4718      4709      4707      4705      4719
      4709      4707      4711      4720      4711      4707      4705      4718
      4711      4707      4705      4719      4711      4707      4709      4721
      4713      4701      4703      4716      4713      4701      4703      4717
      4714      4701      4703      4716      4714      4701      4703      4717
      4715      4701      4703      4716      4715      4701      4703      4717
      4716      4703      4705      4718      4716      4703      4705      4719
      4717      4703      4705      4718      4717      4703      4705      4719
      4726      4728      4730      4732      4726      4728      4730      4743
      4726      4728      4730      4744      4728      4730      4732      4734
      4728      4730      4732      4736      4730      4728      4726      4738
      4730      4728      4726      4739      4730      4728      4726      4740
      4730      4732      4734      4746      4730      4732      4736      4745
      4732      4730      4728      4741      4732      4730      4728      4742
      4734      4732      4730      4743      4734      4732      4730      4744
      4734      4732      4736      4745      4736      4732      4730      4743
      4736      4732      4730      4744      4736      4732      4734      4746
      4738      4726      4728      4741      4738      4726      4728      4742
      4739      4726      4728      4741      4739      4726      4728      4742
      4740      4726      4728      4741      4740      4726      4728      4742
      4741      4728      4730      4743      4741      4728      4730      4744
      4742      4728      4730      4743      4742      4728      4730      4744
      4751      4753      4755      4757      4751      4753      4755      4768
      4751      4753      4755      4769      4753      4755      4757      4759
      4753      4755      4757      4761      4755      4753      4751      4763
      4755      4753      4751      4764      4755      4753      4751      4765
      4755      4757      4759      4771      4755      4757      4761      4770
      4757      4755      4753      4766      4757      4755      4753      4767
      4759      4757      4755      4768      4759      4757      4755      4769
      4759      4757      4761      4770      4761      4757      4755      4768
      4761      4757      4755      4769      4761      4757      4759      4771
      4763      4751      4753      4766      4763      4751      4753      4767
      4764      4751      4753      4766      4764      4751      4753      4767
      4765      4751      4753      4766      4765      4751      4753      4767
      4766      4753      4755      4768      4766      4753      4755      4769
      4767      4753      4755      4768      4767      4753      4755      4769
      4776      4778      4780      4782      4776      4778      4780      4793
      4776      4778      4780      4794      4778      4780      4782      4784
      4778      4780      4782      4786      4780      4778      4776      4788
      4780      4778      4776      4789      4780      4778      4776      4790
      4780      4782      4784      4796      4780      4782      4786      4795
      4782      4780      4778      4791      4782      4780      4778      4792
      4784      4782      4780      4793      4784      4782      4780      4794
      4784      4782      4786      4795      4786      4782      4780      4793
      4786      4782      4780      4794      4786      4782      4784      4796
      4788      4776      4778      4791      4788      4776      4778      4792
      4789      4776      4778      4791      4789      4776      4778      4792
      4790      4776      4778      4791      4790      4776      4778      4792
      4791      4778      4780      4793      4791      4778      4780      4794
      4792      4778      4780      4793      4792      4778      4780      4794
      4801      4803      4805      4807      4801      4803      4805      4818
      4801      4803      4805      4819      4803      4805      4807      4809
      4803      4805      4807      4811      4805      4803      4801      4813
      4805      4803      4801      4814      4805      4803      4801      4815
      4805      4807      4809      4821      4805      4807      4811      4820
      4807      4805      4803      4816      4807      4805      4803      4817
      4809      4807      4805      4818      4809      4807      4805      4819
      4809      4807      4811      4820      4811      4807      4805      4818
      4811      4807      4805      4819      4811      4807      4809      4821
      4813      4801      4803      4816      4813      4801      4803      4817
      4814      4801      4803      4816      4814      4801      4803      4817
      4815      4801      4803      4816      4815      4801      4803      4817
      4816      4803      4805      4818      4816      4803      4805      4819
      4817      4803      4805      4818      4817      4803      4805      4819
      4826      4828      4830      4832      4826      4828      4830      4843
      4826      4828      4830      4844      4828      4830      4832      4834
      4828      4830      4832      4836      4830      4828      4826      4838
      4830      4828      4826      4839      4830      4828      4826      4840
      4830      4832      4834      4846      4830      4832      4836      4845
      4832      4830      4828      4841      4832      4830      4828      4842
      4834      4832      4830      4843      4834      4832      4830      4844
      4834      4832      4836      4845      4836      4832      4830      4843
      4836      4832      4830      4844      4836      4832      4834      4846
      4838      4826      4828      4841      4838      4826      4828      4842
      4839      4826      4828      4841      4839      4826      4828      4842
      4840      4826      4828      4841      4840      4826      4828      4842
      4841      4828      4830      4843      4841      4828      4830      4844
      4842      4828      4830      4843      4842      4828      4830      4844
      4851      4853      4855      4857      4851      4853      4855      4868
      4851      4853      4855      4869      4853      4855      4857      4859
      4853      4855      4857      4861      4855      4853      4851      4863
      4855      4853      4851      4864      4855      4853      4851      4865
      4855      4857      4859      4871      4855      4857      4861      4870
      4857      4855      4853      4866      4857      4855      4853      4867
      4859      4857      4855      4868      4859      4857      4855      4869
      4859      4857      4861      4870      4861      4857      4855      4868
      4861      4857      4855      4869      4861      4857      4859      4871
      4863      4851      4853      4866      4863      4851      4853      4867
      4864      4851      4853      4866      4864      4851      4853      4867
      4865      4851      4853      4866      4865      4851      4853      4867
      4866      4853      4855      4868      4866      4853      4855      4869
      4867      4853      4855      4868      4867      4853      4855      4869
      4876      4878      4880      4882      4876      4878      4880      4893
      4876      4878      4880      4894      4878      4880      4882      4884
      4878      4880      4882      4886      4880      4878      4876      4888
      4880      4878      4876      4889      4880      4878      4876      4890
      4880      4882      4884      4896      4880      4882      4886      4895
      4882      4880      4878      4891      4882      4880      4878      4892
      4884      4882      4880      4893      4884      4882      4880      4894
      4884      4882      4886      4895      4886      4882      4880      4893
      4886      4882      4880      4894      4886      4882      4884      4896
      4888      4876      4878      4891      4888      4876      4878      4892
      4889      4876      4878      4891      4889      4876      4878      4892
      4890      4876      4878      4891      4890      4876      4878      4892
      4891      4878      4880      4893      4891      4878      4880      4894
      4892      4878      4880      4893      4892      4878      4880      4894
      4901      4903      4905      4907      4901      4903      4905      4918
      4901      4903      4905      4919      4903      4905      4907      4909
      4903      4905      4907      4911      4905      4903      4901      4913
      4905      4903      4901      4914      4905      4903      4901      4915
      4905      4907      4909      4921      4905      4907      4911      4920
      4907      4905      4903      4916      4907      4905      4903      4917
      4909      4907      4905      4918      4909      4907      4905      4919
      4909      4907      4911      4920      4911      4907      4905      4918
      4911      4907      4905      4919      4911      4907      4909      4921
      4913      4901      4903      4916      4913      4901      4903      4917
      4914      4901      4903      4916      4914      4901      4903      4917
      4915      4901      4903      4916      4915      4901      4903      4917
      4916      4903      4905      4918      4916      4903      4905      4919
      4917      4903      4905      4918      4917      4903      4905      4919
      4926      4928      4930      4932      4926      4928      4930      4943
      4926      4928      4930      4944      4928      4930      4932      4934
      4928      4930      4932      4936      4930      4928      4926      4938
      4930      4928      4926      4939      4930      4928      4926      4940
      4930      4932      4934      4946      4930      4932      4936      4945
      4932      4930      4928      4941      4932      4930      4928      4942
      4934      4932      4930      4943      4934      4932      4930      4944
      4934      4932      4936      4945      4936      4932      4930      4943
      4936      4932      4930      4944      4936      4932      4934      4946
      4938      4926      4928      4941      4938      4926      4928      4942
      4939      4926      4928      4941      4939      4926      4928      4942
      4940      4926      4928      4941      4940      4926      4928      4942
      4941      4928      4930      4943      4941      4928      4930      4944
      4942      4928      4930      4943      4942      4928      4930      4944
      4951      4953      4955      4957      4951      4953      4955      4968
      4951      4953      4955      4969      4953      4955      4957      4959
      4953      4955      4957      4961      4955      4953      4951      4963
      4955      4953      4951      4964      4955      4953      4951      4965
      4955      4957      4959      4971      4955      4957      4961      4970
      4957      4955      4953      4966      4957      4955      4953      4967
      4959      4957      4955      4968      4959      4957      4955      4969
      4959      4957      4961      4970      4961      4957      4955      4968
      4961      4957      4955      4969      4961      4957      4959      4971
      4963      4951      4953      4966      4963      4951      4953      4967
      4964      4951      4953      4966      4964      4951      4953      4967
      4965      4951      4953      4966      4965      4951      4953      4967
      4966      4953      4955      4968      4966      4953      4955      4969
      4967      4953      4955      4968      4967      4953      4955      4969
      4976      4978      4980      4982      4976      4978      4980      4993
      4976      4978      4980      4994      4978      4980      4982      4984
      4978      4980      4982      4986      4980      4978      4976      4988
      4980      4978      4976      4989      4980      4978      4976      4990
      4980      4982      4984      4996      4980      4982      4986      4995
      4982      4980      4978      4991      4982      4980      4978      4992
      4984      4982      4980      4993      4984      4982      4980      4994
      4984      4982      4986      4995      4986      4982      4980      4993
      4986      4982      4980      4994      4986      4982      4984      4996
      4988      4976      4978      4991      4988      4976      4978      4992
      4989      4976      4978      4991      4989      4976      4978      4992
      4990      4976      4978      4991      4990      4976      4978      4992
      4991      4978      4980      4993      4991      4978      4980      4994
      4992      4978      4980      4993      4992      4978      4980      4994
      5001      5003      5005      5007      5001      5003      5005      5018
      5001      5003      5005      5019      5003      5005      5007      5009
      5003      5005      5007      5011      5005      5003      5001      5013
      5005      5003      5001      5014      5005      5003      5001      5015
      5005      5007      5009      5021      5005      5007      5011      5020
      5007      5005      5003      5016      5007      5005      5003      5017
      5009      5007      5005      5018      5009      5007      5005      5019
      5009      5007      5011      5020      5011      5007      5005      5018
      5011      5007      5005      5019      5011      5007      5009      5021
      5013      5001      5003      5016      5013      5001      5003      5017
      5014      5001      5003      5016      5014      5001      5003      5017
      5015      5001      5003      5016      5015      5001      5003      5017
      5016      5003      5005      5018      5016      5003      5005      5019
      5017      5003      5005      5018      5017      5003      5005      5019
      5026      5028      5030      5032      5026      5028      5030      5043
      5026      5028      5030      5044      5028      5030      5032      5034
      5028      5030      5032      5036      5030      5028      5026      5038
      5030      5028      5026      5039      5030      5028      5026      5040
      5030      5032      5034      5046      5030      5032      5036      5045
      5032      5030      5028      5041      5032      5030      5028      5042
      5034      5032      5030      5043      5034      5032      5030      5044
      5034      5032      5036      5045      5036      5032      5030      5043
      5036      5032      5030      5044      5036      5032      5034      5046
      5038      5026      5028      5041      5038      5026      5028      5042
      5039      5026      5028      5041      5039      5026      5028      5042
      5040      5026      5028      5041      5040      5026      5028      5042
      5041      5028      5030      5043      5041      5028      5030      5044
      5042      5028      5030      5043      5042      5028      5030      5044
      5051      5053      5055      5057      5051      5053      5055      5068
      5051      5053      5055      5069      5053      5055      5057      5059
      5053      5055      5057      5061      5055      5053      5051      5063
      5055      5053      5051      5064      5055      5053      5051      5065
      5055      5057      5059      5071      5055      5057      5061      5070
      5057      5055      5053      5066      5057      5055      5053      5067
      5059      5057      5055      5068      5059      5057      5055      5069
      5059      5057      5061      5070      5061      5057      5055      5068
      5061      5057      5055      5069      5061      5057      5059      5071
      5063      5051      5053      5066      5063      5051      5053      5067
      5064      5051      5053      5066      5064      5051      5053      5067
      5065      5051      5053      5066      5065      5051      5053      5067
      5066      5053      5055      5068      5066      5053      5055      5069
      5067      5053      5055      5068      5067      5053      5055      5069
      5076      5078      5080      5082      5076      5078      5080      5093
      5076      5078      5080      5094      5078      5080      5082      5084
      5078      5080      5082      5086      5080      5078      5076      5088
      5080      5078      5076      5089      5080      5078      5076      5090
      5080      5082      5084      5096      5080      5082      5086      5095
      5082      5080      5078      5091      5082      5080      5078      5092
      5084      5082      5080      5093      5084      5082      5080      5094
      5084      5082      5086      5095      5086      5082      5080      5093
      5086      5082      5080      5094      5086      5082      5084      5096
      5088      5076      5078      5091      5088      5076      5078      5092
      5089      5076      5078      5091      5089      5076      5078      5092
      5090      5076      5078      5091      5090      5076      5078      5092
      5091      5078      5080      5093      5091      5078      5080      5094
      5092      5078      5080      5093      5092      5078      5080      5094
      5101      5103      5105      5107      5101      5103      5105      5118
      5101      5103      5105      5119      5103      5105      5107      5109
      5103      5105      5107      5111      5105      5103      5101      5113
      5105      5103      5101      5114      5105      5103      5101      5115
      5105      5107      5109      5121      5105      5107      5111      5120
      5107      5105      5103      5116      5107      5105      5103      5117
      5109      5107      5105      5118      5109      5107      5105      5119
      5109      5107      5111      5120      5111      5107      5105      5118
      5111      5107      5105      5119      5111      5107      5109      5121
      5113      5101      5103      5116      5113      5101      5103      5117
      5114      5101      5103      5116      5114      5101      5103      5117
      5115      5101      5103      5116      5115      5101      5103      5117
      5116      5103      5105      5118      5116      5103      5105      5119
      5117      5103      5105      5118      5117      5103      5105      5119
      5126      5128      5130      5132      5126      5128      5130      5143
      5126      5128      5130      5144      5128      5130      5132      5134
      5128      5130      5132      5136      5130      5128      5126      5138
      5130      5128      5126      5139      5130      5128      5126      5140
      5130      5132      5134      5146      5130      5132      5136      5145
      5132      5130      5128      5141      5132      5130      5128      5142
      5134      5132      5130      5143      5134      5132      5130      5144
      5134      5132      5136      5145      5136      5132      5130      5143
      5136      5132      5130      5144      5136      5132      5134      5146
      5138      5126      5128      5141      5138      5126      5128      5142
      5139      5126      5128      5141      5139      5126      5128      5142
      5140      5126      5128      5141      5140      5126      5128      5142
      5141      5128      5130      5143      5141      5128      5130      5144
      5142      5128      5130      5143      5142      5128      5130      5144
      5151      5153      5155      5157      5151      5153      5155      5168
      5151      5153      5155      5169      5153      5155      5157      5159
      5153      5155      5157      5161      5155      5153      5151      5163
      5155      5153      5151      5164      5155      5153      5151      5165
      5155      5157      5159      5171      5155      5157      5161      5170
      5157      5155      5153      5166      5157      5155      5153      5167
      5159      5157      5155      5168      5159      5157      5155      5169
      5159      5157      5161      5170      5161      5157      5155      5168
      5161      5157      5155      5169      5161      5157      5159      5171
      5163      5151      5153      5166      5163      5151      5153      5167
      5164      5151      5153      5166      5164      5151      5153      5167
      5165      5151      5153      5166      5165      5151      5153      5167
      5166      5153      5155      5168      5166      5153      5155      5169
      5167      5153      5155      5168      5167      5153      5155      5169
      5176      5178      5180      5182      5176      5178      5180      5193
      5176      5178      5180      5194      5178      5180      5182      5184
      5178      5180      5182      5186      5180      5178      5176      5188
      5180      5178      5176      5189      5180      5178      5176      5190
      5180      5182      5184      5196      5180      5182      5186      5195
      5182      5180      5178      5191      5182      5180      5178      5192
      5184      5182      5180      5193      5184      5182      5180      5194
      5184      5182      5186      5195      5186      5182      5180      5193
      5186      5182      5180      5194      5186      5182      5184      5196
      5188      5176      5178      5191      5188      5176      5178      5192
      5189      5176      5178      5191      5189      5176      5178      5192
      5190      5176      5178      5191      5190      5176      5178      5192
      5191      5178      5180      5193      5191      5178      5180      5194
      5192      5178      5180      5193      5192      5178      5180      5194
      5201      5203      5205      5207      5201      5203      5205      5218
      5201      5203      5205      5219      5203      5205      5207      5209
      5203      5205      5207      5211      5205      5203      5201      5213
      5205      5203      5201      5214      5205      5203      5201      5215
      5205      5207      5209      5221      5205      5207      5211      5220
      5207      5205      5203      5216      5207      5205      5203      5217
      5209      5207      5205      5218      5209      5207      5205      5219
      5209      5207      5211      5220      5211      5207      5205      5218
      5211      5207      5205      5219      5211      5207      5209      5221
      5213      5201      5203      5216      5213      5201      5203      5217
      5214      5201      5203      5216      5214      5201      5203      5217
      5215      5201      5203      5216      5215      5201      5203      5217
      5216      5203      5205      5218      5216      5203      5205      5219
      5217      5203      5205      5218      5217      5203      5205      5219
      5226      5228      5230      5232      5226      5228      5230      5243
      5226      5228      5230      5244      5228      5230      5232      5234
      5228      5230      5232      5236      5230      5228      5226      5238
      5230      5228      5226      5239      5230      5228      5226      5240
      5230      5232      5234      5246      5230      5232      5236      5245
      5232      5230      5228      5241      5232      5230      5228      5242
      5234      5232      5230      5243      5234      5232      5230      5244
      5234      5232      5236      5245      5236      5232      5230      5243
      5236      5232      5230      5244      5236      5232      5234      5246
      5238      5226      5228      5241      5238      5226      5228      5242
      5239      5226      5228      5241      5239      5226      5228      5242
      5240      5226      5228      5241      5240      5226      5228      5242
      5241      5228      5230      5243      5241      5228      5230      5244
      5242      5228      5230      5243      5242      5228      5230      5244
      5251      5253      5255      5257      5251      5253      5255      5268
      5251      5253      5255      5269      5253      5255      5257      5259
      5253      5255      5257      5261      5255      5253      5251      5263
      5255      5253      5251      5264      5255      5253      5251      5265
      5255      5257      5259      5271      5255      5257      5261      5270
      5257      5255      5253      5266      5257      5255      5253      5267
      5259      5257      5255      5268      5259      5257      5255      5269
      5259      5257      5261      5270      5261      5257      5255      5268
      5261      5257      5255      5269      5261      5257      5259      5271
      5263      5251      5253      5266      5263      5251      5253      5267
      5264      5251      5253      5266      5264      5251      5253      5267
      5265      5251      5253      5266      5265      5251      5253      5267
      5266      5253      5255      5268      5266      5253      5255      5269
      5267      5253      5255      5268      5267      5253      5255      5269
      5276      5278      5280      5282      5276      5278      5280      5293
      5276      5278      5280      5294      5278      5280      5282      5284
      5278      5280      5282      5286      5280      5278      5276      5288
      5280      5278      5276      5289      5280      5278      5276      5290
      5280      5282      5284      5296      5280      5282      5286      5295
      5282      5280      5278      5291      5282      5280      5278      5292
      5284      5282      5280      5293      5284      5282      5280      5294
      5284      5282      5286      5295      5286      5282      5280      5293
      5286      5282      5280      5294      5286      5282      5284      5296
      5288      5276      5278      5291      5288      5276      5278      5292
      5289      5276      5278      5291      5289      5276      5278      5292
      5290      5276      5278      5291      5290      5276      5278      5292
      5291      5278      5280      5293      5291      5278      5280      5294
      5292      5278      5280      5293      5292      5278      5280      5294
      5301      5303      5305      5307      5301      5303      5305      5318
      5301      5303      5305      5319      5303      5305      5307      5309
      5303      5305      5307      5311      5305      5303      5301      5313
      5305      5303      5301      5314      5305      5303      5301      5315
      5305      5307      5309      5321      5305      5307      5311      5320
      5307      5305      5303      5316      5307      5305      5303      5317
      5309      5307      5305      5318      5309      5307      5305      5319
      5309      5307      5311      5320      5311      5307      5305      5318
      5311      5307      5305      5319      5311      5307      5309      5321
      5313      5301      5303      5316      5313      5301      5303      5317
      5314      5301      5303      5316      5314      5301      5303      5317
      5315      5301      5303      5316      5315      5301      5303      5317
      5316      5303      5305      5318      5316      5303      5305      5319
      5317      5303      5305      5318      5317      5303      5305      5319
      5326      5328      5330      5332      5326      5328      5330      5343
      5326      5328      5330      5344      5328      5330      5332      5334
      5328      5330      5332      5336      5330      5328      5326      5338
      5330      5328      5326      5339      5330      5328      5326      5340
      5330      5332      5334      5346      5330      5332      5336      5345
      5332      5330      5328      5341      5332      5330      5328      5342
      5334      5332      5330      5343      5334      5332      5330      5344
      5334      5332      5336      5345      5336      5332      5330      5343
      5336      5332      5330      5344      5336      5332      5334      5346
      5338      5326      5328      5341      5338      5326      5328      5342
      5339      5326      5328      5341      5339      5326      5328      5342
      5340      5326      5328      5341      5340      5326      5328      5342
      5341      5328      5330      5343      5341      5328      5330      5344
      5342      5328      5330      5343      5342      5328      5330      5344
      5351      5353      5355      5357      5351      5353      5355      5368
      5351      5353      5355      5369      5353      5355      5357      5359
      5353      5355      5357      5361      5355      5353      5351      5363
      5355      5353      5351      5364      5355      5353      5351      5365
      5355      5357      5359      5371      5355      5357      5361      5370
      5357      5355      5353      5366      5357      5355      5353      5367
      5359      5357      5355      5368      5359      5357      5355      5369
      5359      5357      5361      5370      5361      5357      5355      5368
      5361      5357      5355      5369      5361      5357      5359      5371
      5363      5351      5353      5366      5363      5351      5353      5367
      5364      5351      5353      5366      5364      5351      5353      5367
      5365      5351      5353      5366      5365      5351      5353      5367
      5366      5353      5355      5368      5366      5353      5355      5369
      5367      5353      5355      5368      5367      5353      5355      5369
      5376      5378      5380      5382      5376      5378      5380      5393
      5376      5378      5380      5394      5378      5380      5382      5384
      5378      5380      5382      5386      5380      5378      5376      5388
      5380      5378      5376      5389      5380      5378      5376      5390
      5380      5382      5384      5396      5380      5382      5386      5395
      5382      5380      5378      5391      5382      5380      5378      5392
      5384      5382      5380      5393      5384      5382      5380      5394
      5384      5382      5386      5395      5386      5382      5380      5393
      5386      5382      5380      5394      5386      5382      5384      5396
      5388      5376      5378      5391      5388      5376      5378      5392
      5389      5376      5378      5391      5389      5376      5378      5392
      5390      5376      5378      5391      5390      5376      5378      5392
      5391      5378      5380      5393      5391      5378      5380      5394
      5392      5378      5380      5393      5392      5378      5380      5394
      5401      5403      5405      5407      5401      5403      5405      5418
      5401      5403      5405      5419      5403      5405      5407      5409
      5403      5405      5407      5411      5405      5403      5401      5413
      5405      5403      5401      5414      5405      5403      5401      5415
      5405      5407      5409      5421      5405      5407      5411      5420
      5407      5405      5403      5416      5407      5405      5403      5417
      5409      5407      5405      5418      5409      5407      5405      5419
      5409      5407      5411      5420      5411      5407      5405      5418
      5411      5407      5405      5419      5411      5407      5409      5421
      5413      5401      5403      5416      5413      5401      5403      5417
      5414      5401      5403      5416      5414      5401      5403      5417
      5415      5401      5403      5416      5415      5401      5403      5417
      5416      5403      5405      5418      5416      5403      5405      5419
      5417      5403      5405      5418      5417      5403      5405      5419
      5426      5428      5430      5432      5426      5428      5430      5443
      5426      5428      5430      5444      5428      5430      5432      5434
      5428      5430      5432      5436      5430      5428      5426      5438
      5430      5428      5426      5439      5430      5428      5426      5440
      5430      5432      5434      5446      5430      5432      5436      5445
      5432      5430      5428      5441      5432      5430      5428      5442
      5434      5432      5430      5443      5434      5432      5430      5444
      5434      5432      5436      5445      5436      5432      5430      5443
      5436      5432      5430      5444      5436      5432      5434      5446
      5438      5426      5428      5441      5438      5426      5428      5442
      5439      5426      5428      5441      5439      5426      5428      5442
      5440      5426      5428      5441      5440      5426      5428      5442
      5441      5428      5430      5443      5441      5428      5430      5444
      5442      5428      5430      5443      5442      5428      5430      5444
      5451      5453      5455      5457      5451      5453      5455      5468
      5451      5453      5455      5469      5453      5455      5457      5459
      5453      5455      5457      5461      5455      5453      5451      5463
      5455      5453      5451      5464      5455      5453      5451      5465
      5455      5457      5459      5471      5455      5457      5461      5470
      5457      5455      5453      5466      5457      5455      5453      5467
      5459      5457      5455      5468      5459      5457      5455      5469
      5459      5457      5461      5470      5461      5457      5455      5468
      5461      5457      5455      5469      5461      5457      5459      5471
      5463      5451      5453      5466      5463      5451      5453      5467
      5464      5451      5453      5466      5464      5451      5453      5467
      5465      5451      5453      5466      5465      5451      5453      5467
      5466      5453      5455      5468      5466      5453      5455      5469
      5467      5453      5455      5468      5467      5453      5455      5469
      5476      5478      5480      5482      5476      5478      5480      5493
      5476      5478      5480      5494      5478      5480      5482      5484
      5478      5480      5482      5486      5480      5478      5476      5488
      5480      5478      5476      5489      5480      5478      5476      5490
      5480      5482      5484      5496      5480      5482      5486      5495
      5482      5480      5478      5491      5482      5480      5478      5492
      5484      5482      5480      5493      5484      5482      5480      5494
      5484      5482      5486      5495      5486      5482      5480      5493
      5486      5482      5480      5494      5486      5482      5484      5496
      5488      5476      5478      5491      5488      5476      5478      5492
      5489      5476      5478      5491      5489      5476      5478      5492
      5490      5476      5478      5491      5490      5476      5478      5492
      5491      5478      5480      5493      5491      5478      5480      5494
      5492      5478      5480      5493      5492      5478      5480      5494
      5501      5503      5505      5507      5501      5503      5505      5518
      5501      5503      5505      5519      5503      5505      5507      5509
      5503      5505      5507      5511      5505      5503      5501      5513
      5505      5503      5501      5514      5505      5503      5501      5515
      5505      5507      5509      5521      5505      5507      5511      5520
      5507      5505      5503      5516      5507      5505      5503      5517
      5509      5507      5505      5518      5509      5507      5505      5519
      5509      5507      5511      5520      5511      5507      5505      5518
      5511      5507      5505      5519      5511      5507      5509      5521
      5513      5501      5503      5516      5513      5501      5503      5517
      5514      5501      5503      5516      5514      5501      5503      5517
      5515      5501      5503      5516      5515      5501      5503      5517
      5516      5503      5505      5518      5516      5503      5505      5519
      5517      5503      5505      5518      5517      5503      5505      5519
      5526      5528      5530      5532      5526      5528      5530      5543
      5526      5528      5530      5544      5528      5530      5532      5534
      5528      5530      5532      5536      5530      5528      5526      5538
      5530      5528      5526      5539      5530      5528      5526      5540
      5530      5532      5534      5546      5530      5532      5536      5545
      5532      5530      5528      5541      5532      5530      5528      5542
      5534      5532      5530      5543      5534      5532      5530      5544
      5534      5532      5536      5545      5536      5532      5530      5543
      5536      5532      5530      5544      5536      5532      5534      5546
      5538      5526      5528      5541      5538      5526      5528      5542
      5539      5526      5528      5541      5539      5526      5528      5542
      5540      5526      5528      5541      5540      5526      5528      5542
      5541      5528      5530      5543      5541      5528      5530      5544
      5542      5528      5530      5543      5542      5528      5530      5544
      5551      5553      5555      5557      5551      5553      5555      5568
      5551      5553      5555      5569      5553      5555      5557      5559
      5553      5555      5557      5561      5555      5553      5551      5563
      5555      5553      5551      5564      5555      5553      5551      5565
      5555      5557      5559      5571      5555      5557      5561      5570
      5557      5555      5553      5566      5557      5555      5553      5567
      5559      5557      5555      5568      5559      5557      5555      5569
      5559      5557      5561      5570      5561      5557      5555      5568
      5561      5557      5555      5569      5561      5557      5559      5571
      5563      5551      5553      5566      5563      5551      5553      5567
      5564      5551      5553      5566      5564      5551      5553      5567
      5565      5551      5553      5566      5565      5551      5553      5567
      5566      5553      5555      5568      5566      5553      5555      5569
      5567      5553      5555      5568      5567      5553      5555      5569
      5576      5578      5580      5582      5576      5578      5580      5593
      5576      5578      5580      5594      5578      5580      5582      5584
      5578      5580      5582      5586      5580      5578      5576      5588
      5580      5578      5576      5589      5580      5578      5576      5590
      5580      5582      5584      5596      5580      5582      5586      5595
      5582      5580      5578      5591      5582      5580      5578      5592
      5584      5582      5580      5593      5584      5582      5580      5594
      5584      5582      5586      5595      5586      5582      5580      5593
      5586      5582      5580      5594      5586      5582      5584      5596
      5588      5576      5578      5591      5588      5576      5578      5592
      5589      5576      5578      5591      5589      5576      5578      5592
      5590      5576      5578      5591      5590      5576      5578      5592
      5591      5578      5580      5593      5591      5578      5580      5594
      5592      5578      5580      5593      5592      5578      5580      5594
      5601      5603      5605      5607      5601      5603      5605      5618
      5601      5603      5605      5619      5603      5605      5607      5609
      5603      5605      5607      5611      5605      5603      5601      5613
      5605      5603      5601      5614      5605      5603      5601      5615
      5605      5607      5609      5621      5605      5607      5611      5620
      5607      5605      5603      5616      5607      5605      5603      5617
      5609      5607      5605      5618      5609      5607      5605      5619
      5609      5607      5611      5620      5611      5607      5605      5618
      5611      5607      5605      5619      5611      5607      5609      5621
      5613      5601      5603      5616      5613      5601      5603      5617
      5614      5601      5603      5616      5614      5601      5603      5617
      5615      5601      5603      5616      5615      5601      5603      5617
      5616      5603      5605      5618      5616      5603      5605      5619
      5617      5603      5605      5618      5617      5603      5605      5619
      5626      5628      5630      5632      5626      5628      5630      5643
      5626      5628      5630      5644      5628      5630      5632      5634
      5628      5630      5632      5636      5630      5628      5626      5638
      5630      5628      5626      5639      5630      5628      5626      5640
      5630      5632      5634      5646      5630      5632      5636      5645
      5632      5630      5628      5641      5632      5630      5628      5642
      5634      5632      5630      5643      5634      5632      5630      5644
      5634      5632      5636      5645      5636      5632      5630      5643
      5636      5632      5630      5644      5636      5632      5634      5646
      5638      5626      5628      5641      5638      5626      5628      5642
      5639      5626      5628      5641      5639      5626      5628      5642
      5640      5626      5628      5641      5640      5626      5628      5642
      5641      5628      5630      5643      5641      5628      5630      5644
      5642      5628      5630      5643      5642      5628      5630      5644
      5651      5653      5655      5657      5651      5653      5655      5668
      5651      5653      5655      5669      5653      5655      5657      5659
      5653      5655      5657      5661      5655      5653      5651      5663
      5655      5653      5651      5664      5655      5653      5651      5665
      5655      5657      5659      5671      5655      5657      5661      5670
      5657      5655      5653      5666      5657      5655      5653      5667
      5659      5657      5655      5668      5659      5657      5655      5669
      5659      5657      5661      5670      5661      5657      5655      5668
      5661      5657      5655      5669      5661      5657      5659      5671
      5663      5651      5653      5666      5663      5651      5653      5667
      5664      5651      5653      5666      5664      5651      5653      5667
      5665      5651      5653      5666      5665      5651      5653      5667
      5666      5653      5655      5668      5666      5653      5655      5669
      5667      5653      5655      5668      5667      5653      5655      5669
      5676      5678      5680      5682      5676      5678      5680      5693
      5676      5678      5680      5694      5678      5680      5682      5684
      5678      5680      5682      5686      5680      5678      5676      5688
      5680      5678      5676      5689      5680      5678      5676      5690
      5680      5682      5684      5696      5680      5682      5686      5695
      5682      5680      5678      5691      5682      5680      5678      5692
      5684      5682      5680      5693      5684      5682      5680      5694
      5684      5682      5686      5695      5686      5682      5680      5693
      5686      5682      5680      5694      5686      5682      5684      5696
      5688      5676      5678      5691      5688      5676      5678      5692
      5689      5676      5678      5691      5689      5676      5678      5692
      5690      5676      5678      5691      5690      5676      5678      5692
      5691      5678      5680      5693      5691      5678      5680      5694
      5692      5678      5680      5693      5692      5678      5680      5694
      5701      5703      5705      5707      5701      5703      5705      5718
      5701      5703      5705      5719      5703      5705      5707      5709
      5703      5705      5707      5711      5705      5703      5701      5713
      5705      5703      5701      5714      5705      5703      5701      5715
      5705      5707      5709      5721      5705      5707      5711      5720
      5707      5705      5703      5716      5707      5705      5703      5717
      5709      5707      5705      5718      5709      5707      5705      5719
      5709      5707      5711      5720      5711      5707      5705      5718
      5711      5707      5705      5719      5711      5707      5709      5721
      5713      5701      5703      5716      5713      5701      5703      5717
      5714      5701      5703      5716      5714      5701      5703      5717
      5715      5701      5703      5716      5715      5701      5703      5717
      5716      5703      5705      5718      5716      5703      5705      5719
      5717      5703      5705      5718      5717      5703      5705      5719
      5726      5728      5730      5732      5726      5728      5730      5743
      5726      5728      5730      5744      5728      5730      5732      5734
      5728      5730      5732      5736      5730      5728      5726      5738
      5730      5728      5726      5739      5730      5728      5726      5740
      5730      5732      5734      5746      5730      5732      5736      5745
      5732      5730      5728      5741      5732      5730      5728      5742
      5734      5732      5730      5743      5734      5732      5730      5744
      5734      5732      5736      5745      5736      5732      5730      5743
      5736      5732      5730      5744      5736      5732      5734      5746
      5738      5726      5728      5741      5738      5726      5728      5742
      5739      5726      5728      5741      5739      5726      5728      5742
      5740      5726      5728      5741      5740      5726      5728      5742
      5741      5728      5730      5743      5741      5728      5730      5744
      5742      5728      5730      5743      5742      5728      5730      5744
      5751      5753      5755      5757      5751      5753      5755      5768
      5751      5753      5755      5769      5753      5755      5757      5759
      5753      5755      5757      5761      5755      5753      5751      5763
      5755      5753      5751      5764      5755      5753      5751      5765
      5755      5757      5759      5771      5755      5757      5761      5770
      5757      5755      5753      5766      5757      5755      5753      5767
      5759      5757      5755      5768      5759      5757      5755      5769
      5759      5757      5761      5770      5761      5757      5755      5768
      5761      5757      5755      5769      5761      5757      5759      5771
      5763      5751      5753      5766      5763      5751      5753      5767
      5764      5751      5753      5766      5764      5751      5753      5767
      5765      5751      5753      5766      5765      5751      5753      5767
      5766      5753      5755      5768      5766      5753      5755      5769
      5767      5753      5755      5768      5767      5753      5755      5769
      5776      5778      5780      5782      5776      5778      5780      5793
      5776      5778      5780      5794      5778      5780      5782      5784
      5778      5780      5782      5786      5780      5778      5776      5788
      5780      5778      5776      5789      5780      5778      5776      5790
      5780      5782      5784      5796      5780      5782      5786      5795
      5782      5780      5778      5791      5782      5780      5778      5792
      5784      5782      5780      5793      5784      5782      5780      5794
      5784      5782      5786      5795      5786      5782      5780      5793
      5786      5782      5780      5794      5786      5782      5784      5796
      5788      5776      5778      5791      5788      5776      5778      5792
      5789      5776      5778      5791      5789      5776      5778      5792
      5790      5776      5778      5791      5790      5776      5778      5792
      5791      5778      5780      5793      5791      5778      5780      5794
      5792      5778      5780      5793      5792      5778      5780      5794
      5801      5803      5805      5807      5801      5803      5805      5818
      5801      5803      5805      5819      5803      5805      5807      5809
      5803      5805      5807      5811      5805      5803      5801      5813
      5805      5803      5801      5814      5805      5803      5801      5815
      5805      5807      5809      5821      5805      5807      5811      5820
      5807      5805      5803      5816      5807      5805      5803      5817
      5809      5807      5805      5818      5809      5807      5805      5819
      5809      5807      5811      5820      5811      5807      5805      5818
      5811      5807      5805      5819      5811      5807      5809      5821
      5813      5801      5803      5816      5813      5801      5803      5817
      5814      5801      5803      5816      5814      5801      5803      5817
      5815      5801      5803      5816      5815      5801      5803      5817
      5816      5803      5805      5818      5816      5803      5805      5819
      5817      5803      5805      5818      5817      5803      5805      5819
      5826      5828      5830      5832      5826      5828      5830      5843
      5826      5828      5830      5844      5828      5830      5832      5834
      5828      5830      5832      5836      5830      5828      5826      5838
      5830      5828      5826      5839      5830      5828      5826      5840
      5830      5832      5834      5846      5830      5832      5836      5845
      5832      5830      5828      5841      5832      5830      5828      5842
      5834      5832      5830      5843      5834      5832      5830      5844
      5834      5832      5836      5845      5836      5832      5830      5843
      5836      5832      5830      5844      5836      5832      5834      5846
      5838      5826      5828      5841      5838      5826      5828      5842
      5839      5826      5828      5841      5839      5826      5828      5842
      5840      5826      5828      5841      5840      5826      5828      5842
      5841      5828      5830      5843      5841      5828      5830      5844
      5842      5828      5830      5843      5842      5828      5830      5844
      5851      5853      5855      5857      5851      5853      5855      5868
      5851      5853      5855      5869      5853      5855      5857      5859
      5853      5855      5857      5861      5855      5853      5851      5863
      5855      5853      5851      5864      5855      5853      5851      5865
      5855      5857      5859      5871      5855      5857      5861      5870
      5857      5855      5853      5866      5857      5855      5853      5867
      5859      5857      5855      5868      5859      5857      5855      5869
      5859      5857      5861      5870      5861      5857      5855      5868
      5861      5857      5855      5869      5861      5857      5859      5871
      5863      5851      5853      5866      5863      5851      5853      5867
      5864      5851      5853      5866      5864      5851      5853      5867
      5865      5851      5853      5866      5865      5851      5853      5867
      5866      5853      5855      5868      5866      5853      5855      5869
      5867      5853      5855      5868      5867      5853      5855      5869
      5876      5878      5880      5882      5876      5878      5880      5893
      5876      5878      5880      5894      5878      5880      5882      5884
      5878      5880      5882      5886      5880      5878      5876      5888
      5880      5878      5876      5889      5880      5878      5876      5890
      5880      5882      5884      5896      5880      5882      5886      5895
      5882      5880      5878      5891      5882      5880      5878      5892
      5884      5882      5880      5893      5884      5882      5880      5894
      5884      5882      5886      5895      5886      5882      5880      5893
      5886      5882      5880      5894      5886      5882      5884      5896
      5888      5876      5878      5891      5888      5876      5878      5892
      5889      5876      5878      5891      5889      5876      5878      5892
      5890      5876      5878      5891      5890      5876      5878      5892
      5891      5878      5880      5893      5891      5878      5880      5894
      5892      5878      5880      5893      5892      5878      5880      5894
      5901      5903      5905      5907      5901      5903      5905      5918
      5901      5903      5905      5919      5903      5905      5907      5909
      5903      5905      5907      5911      5905      5903      5901      5913
      5905      5903      5901      5914      5905      5903      5901      5915
      5905      5907      5909      5921      5905      5907      5911      5920
      5907      5905      5903      5916      5907      5905      5903      5917
      5909      5907      5905      5918      5909      5907      5905      5919
      5909      5907      5911      5920      5911      5907      5905      5918
      5911      5907      5905      5919      5911      5907      5909      5921
      5913      5901      5903      5916      5913      5901      5903      5917
      5914      5901      5903      5916      5914      5901      5903      5917
      5915      5901      5903      5916      5915      5901      5903      5917
      5916      5903      5905      5918      5916      5903      5905      5919
      5917      5903      5905      5918      5917      5903      5905      5919
      5926      5928      5930      5932      5926      5928      5930      5943
      5926      5928      5930      5944      5928      5930      5932      5934
      5928      5930      5932      5936      5930      5928      5926      5938
      5930      5928      5926      5939      5930      5928      5926      5940
      5930      5932      5934      5946      5930      5932      5936      5945
      5932      5930      5928      5941      5932      5930      5928      5942
      5934      5932      5930      5943      5934      5932      5930      5944
      5934      5932      5936      5945      5936      5932      5930      5943
      5936      5932      5930      5944      5936      5932      5934      5946
      5938      5926      5928      5941      5938      5926      5928      5942
      5939      5926      5928      5941      5939      5926      5928      5942
      5940      5926      5928      5941      5940      5926      5928      5942
      5941      5928      5930      5943      5941      5928      5930      5944
      5942      5928      5930      5943      5942      5928      5930      5944
      5951      5953      5955      5957      5951      5953      5955      5968
      5951      5953      5955      5969      5953      5955      5957      5959
      5953      5955      5957      5961      5955      5953      5951      5963
      5955      5953      5951      5964      5955      5953      5951      5965
      5955      5957      5959      5971      5955      5957      5961      5970
      5957      5955      5953      5966      5957      5955      5953      5967
      5959      5957      5955      5968      5959      5957      5955      5969
      5959      5957      5961      5970      5961      5957      5955      5968
      5961      5957      5955      5969      5961      5957      5959      5971
      5963      5951      5953      5966      5963      5951      5953      5967
      5964      5951      5953      5966      5964      5951      5953      5967
      5965      5951      5953      5966      5965      5951      5953      5967
      5966      5953      5955      5968      5966      5953      5955      5969
      5967      5953      5955      5968      5967      5953      5955      5969
      5976      5978      5980      5982      5976      5978      5980      5993
      5976      5978      5980      5994      5978      5980      5982      5984
      5978      5980      5982      5986      5980      5978      5976      5988
      5980      5978      5976      5989      5980      5978      5976      5990
      5980      5982      5984      5996      5980      5982      5986      5995
      5982      5980      5978      5991      5982      5980      5978      5992
      5984      5982      5980      5993      5984      5982      5980      5994
      5984      5982      5986      5995      5986      5982      5980      5993
      5986      5982      5980      5994      5986      5982      5984      5996
      5988      5976      5978      5991      5988      5976      5978      5992
      5989      5976      5978      5991      5989      5976      5978      5992
      5990      5976      5978      5991      5990      5976      5978      5992
      5991      5978      5980      5993      5991      5978      5980      5994
      5992      5978      5980      5993      5992      5978      5980      5994
      6001      6003      6005      6007      6001      6003      6005      6018
      6001      6003      6005      6019      6003      6005      6007      6009
      6003      6005      6007      6011      6005      6003      6001      6013
      6005      6003      6001      6014      6005      6003      6001      6015
      6005      6007      6009      6021      6005      6007      6011      6020
      6007      6005      6003      6016      6007      6005      6003      6017
      6009      6007      6005      6018      6009      6007      6005      6019
      6009      6007      6011      6020      6011      6007      6005      6018
      6011      6007      6005      6019      6011      6007      6009      6021
      6013      6001      6003      6016      6013      6001      6003      6017
      6014      6001      6003      6016      6014      6001      6003      6017
      6015      6001      6003      6016      6015      6001      6003      6017
      6016      6003      6005      6018      6016      6003      6005      6019
      6017      6003      6005      6018      6017      6003      6005      6019
      6026      6028      6030      6032      6026      6028      6030      6043
      6026      6028      6030      6044      6028      6030      6032      6034
      6028      6030      6032      6036      6030      6028      6026      6038
      6030      6028      6026      6039      6030      6028      6026      6040
      6030      6032      6034      6046      6030      6032      6036      6045
      6032      6030      6028      6041      6032      6030      6028      6042
      6034      6032      6030      6043      6034      6032      6030      6044
      6034      6032      6036      6045      6036      6032      6030      6043
      6036      6032      6030      6044      6036      6032      6034      6046
      6038      6026      6028      6041      6038      6026      6028      6042
      6039      6026      6028      6041      6039      6026      6028      6042
      6040      6026      6028      6041      6040      6026      6028      6042
      6041      6028      6030      6043      6041      6028      6030      6044
      6042      6028      6030      6043      6042      6028      6030      6044
      6051      6053      6055      6057      6051      6053      6055      6068
      6051      6053      6055      6069      6053      6055      6057      6059
      6053      6055      6057      6061      6055      6053      6051      6063
      6055      6053      6051      6064      6055      6053      6051      6065
      6055      6057      6059      6071      6055      6057      6061      6070
      6057      6055      6053      6066      6057      6055      6053      6067
      6059      6057      6055      6068      6059      6057      6055      6069
      6059      6057      6061      6070      6061      6057      6055      6068
      6061      6057      6055      6069      6061      6057      6059      6071
      6063      6051      6053      6066      6063      6051      6053      6067
      6064      6051      6053      6066      6064      6051      6053      6067
      6065      6051      6053      6066      6065      6051      6053      6067
      6066      6053      6055      6068      6066      6053      6055      6069
      6067      6053      6055      6068      6067      6053      6055      6069
      6076      6081      6083      6085      6076      6081      6083      6086
      6076      6081      6089      6091      6076      6081      6089      6092
      6078      6076      6081      6083      6078      6076      6081      6089
      6079      6076      6081      6083      6079      6076      6081      6089
      6080      6076      6081      6083      6080      6076      6081      6089
      6081      6083      6086      6088      6081      6083      6086      6092
      6081      6089      6092      6086      6081      6089      6092      6094
      6083      6081      6089      6091      6083      6081      6089      6092
      6083      6086      6092      6089      6083      6086      6092      6094
      6085      6083      6081      6089      6085      6083      6086      6088
      6085      6083      6086      6092      6086      6083      6081      6089
      6086      6092      6089      6091      6088      6086      6092      6089
      6088      6086      6092      6094      6091      6089      6092      6094
      6096      6101      6103      6105      6096      6101      6103      6106
      6096      6101      6109      6111      6096      6101      6109      6112
      6098      6096      6101      6103      6098      6096      6101      6109
      6099      6096      6101      6103      6099      6096      6101      6109
      6100      6096      6101      6103      6100      6096      6101      6109
      6101      6103      6106      6108      6101      6103      6106      6112
      6101      6109      6112      6106      6101      6109      6112      6114
      6103      6101      6109      6111      6103      6101      6109      6112
      6103      6106      6112      6109      6103      6106      6112      6114
      6105      6103      6101      6109      6105      6103      6106      6108
      6105      6103      6106      6112      6106      6103      6101      6109
      6106      6112      6109      6111      6108      6106      6112      6109
      6108      6106      6112      6114      6111      6109      6112      6114
      6116      6121      6123      6125      6116      6121      6123      6126
      6116      6121      6129      6131      6116      6121      6129      6132
      6118      6116      6121      6123      6118      6116      6121      6129
      6119      6116      6121      6123      6119      6116      6121      6129
      6120      6116      6121      6123      6120      6116      6121      6129
      6121      6123      6126      6128      6121      6123      6126      6132
      6121      6129      6132      6126      6121      6129      6132      6134
      6123      6121      6129      6131      6123      6121      6129      6132
      6123      6126      6132      6129      6123      6126      6132      6134
      6125      6123      6121      6129      6125      6123      6126      6128
      6125      6123      6126      6132      6126      6123      6121      6129
      6126      6132      6129      6131      6128      6126      6132      6129
      6128      6126      6132      6134      6131      6129      6132      6134
      6136      6141      6143      6145      6136      6141      6143      6146
      6136      6141      6149      6151      6136      6141      6149      6152
      6138      6136      6141      6143      6138      6136      6141      6149
      6139      6136      6141      6143      6139      6136      6141      6149
      6140      6136      6141      6143      6140      6136      6141      6149
      6141      6143      6146      6148      6141      6143      6146      6152
      6141      6149      6152      6146      6141      6149      6152      6154
      6143      6141      6149      6151      6143      6141      6149      6152
      6143      6146      6152      6149      6143      6146      6152      6154
      6145      6143      6141      6149      6145      6143      6146      6148
      6145      6143      6146      6152      6146      6143      6141      6149
      6146      6152      6149      6151      6148      6146      6152      6149
      6148      6146      6152      6154      6151      6149      6152      6154
      6156      6161      6163      6165      6156      6161      6163      6166
      6156      6161      6169      6171      6156      6161      6169      6172
      6158      6156      6161      6163      6158      6156      6161      6169
      6159      6156      6161      6163      6159      6156      6161      6169
      6160      6156      6161      6163      6160      6156      6161      6169
      6161      6163      6166      6168      6161      6163      6166      6172
      6161      6169      6172      6166      6161      6169      6172      6174
      6163      6161      6169      6171      6163      6161      6169      6172
      6163      6166      6172      6169      6163      6166      6172      6174
      6165      6163      6161      6169      6165      6163      6166      6168
      6165      6163      6166      6172      6166      6163      6161      6169
      6166      6172      6169      6171      6168      6166      6172      6169
      6168      6166      6172      6174      6171      6169      6172      6174
      6176      6181      6183      6185      6176      6181      6183      6186
      6176      6181      6189      6191      6176      6181      6189      6192
      6178      6176      6181      6183      6178      6176      6181      6189
      6179      6176      6181      6183      6179      6176      6181      6189
      6180      6176      6181      6183      6180      6176      6181      6189
      6181      6183      6186      6188      6181      6183      6186      6192
      6181      6189      6192      6186      6181      6189      6192      6194
      6183      6181      6189      6191      6183      6181      6189      6192
      6183      6186      6192      6189      6183      6186      6192      6194
      6185      6183      6181      6189      6185      6183      6186      6188
      6185      6183      6186      6192      6186      6183      6181      6189
      6186      6192      6189      6191      6188      6186      6192      6189
      6188      6186      6192      6194      6191      6189      6192      6194
      6196      6201      6203      6205      6196      6201      6203      6206
      6196      6201      6209      6211      6196      6201      6209      6212
      6198      6196      6201      6203      6198      6196      6201      6209
      6199      6196      6201      6203      6199      6196      6201      6209
      6200      6196      6201      6203      6200      6196      6201      6209
      6201      6203      6206      6208      6201      6203      6206      6212
      6201      6209      6212      6206      6201      6209      6212      6214
      6203      6201      6209      6211      6203      6201      6209      6212
      6203      6206      6212      6209      6203      6206      6212      6214
      6205      6203      6201      6209      6205      6203      6206      6208
      6205      6203      6206      6212      6206      6203      6201      6209
      6206      6212      6209      6211      6208      6206      6212      6209
      6208      6206      6212      6214      6211      6209      6212      6214
      6216      6221      6223      6225      6216      6221      6223      6226
      6216      6221      6229      6231      6216      6221      6229      6232
      6218      6216      6221      6223      6218      6216      6221      6229
      6219      6216      6221      6223      6219      6216      6221      6229
      6220      6216      6221      6223      6220      6216      6221      6229
      6221      6223      6226      6228      6221      6223      6226      6232
      6221      6229      6232      6226      6221      6229      6232      6234
      6223      6221      6229      6231      6223      6221      6229      6232
      6223      6226      6232      6229      6223      6226      6232      6234
      6225      6223      6221      6229      6225      6223      6226      6228
      6225      6223      6226      6232      6226      6223      6221      6229
      6226      6232      6229      6231      6228      6226      6232      6229
      6228      6226      6232      6234      6231      6229      6232      6234
      6236      6241      6243      6245      6236      6241      6243      6246
      6236      6241      6249      6251      6236      6241      6249      6252
      6238      6236      6241      6243      6238      6236      6241      6249
      6239      6236      6241      6243      6239      6236      6241      6249
      6240      6236      6241      6243      6240      6236      6241      6249
      6241      6243      6246      6248      6241      6243      6246      6252
      6241      6249      6252      6246      6241      6249      6252      6254
      6243      6241      6249      6251      6243      6241      6249      6252
      6243      6246      6252      6249      6243      6246      6252      6254
      6245      6243      6241      6249      6245      6243      6246      6248
      6245      6243      6246      6252      6246      6243      6241      6249
      6246      6252      6249      6251      6248      6246      6252      6249
      6248      6246      6252      6254      6251      6249      6252      6254
      6256      6261      6263      6265      6256      6261      6263      6266
      6256      6261      6269      6271      6256      6261      6269      6272
      6258      6256      6261      6263      6258      6256      6261      6269
      6259      6256      6261      6263      6259      6256      6261      6269
      6260      6256      6261      6263      6260      6256      6261      6269
      6261      6263      6266      6268      6261      6263      6266      6272
      6261      6269      6272      6266      6261      6269      6272      6274
      6263      6261      6269      6271      6263      6261      6269      6272
      6263      6266      6272      6269      6263      6266      6272      6274
      6265      6263      6261      6269      6265      6263      6266      6268
      6265      6263      6266      6272      6266      6263      6261      6269
      6266      6272      6269      6271      6268      6266      6272      6269
      6268      6266      6272      6274      6271      6269      6272      6274
      6276      6281      6283      6285      6276      6281      6283      6286
      6276      6281      6289      6291      6276      6281      6289      6292
      6278      6276      6281      6283      6278      6276      6281      6289
      6279      6276      6281      6283      6279      6276      6281      6289
      6280      6276      6281      6283      6280      6276      6281      6289
      6281      6283      6286      6288      6281      6283      6286      6292
      6281      6289      6292      6286      6281      6289      6292      6294
      6283      6281      6289      6291      6283      6281      6289      6292
      6283      6286      6292      6289      6283      6286      6292      6294
      6285      6283      6281      6289      6285      6283      6286      6288
      6285      6283      6286      6292      6286      6283      6281      6289
      6286      6292      6289      6291      6288      6286      6292      6289
      6288      6286      6292      6294      6291      6289      6292      6294
      6296      6301      6303      6305      6296      6301      6303      6306
      6296      6301      6309      6311      6296      6301      6309      6312
      6298      6296      6301      6303      6298      6296      6301      6309
      6299      6296      6301      6303      6299      6296      6301      6309
      6300      6296      6301      6303      6300      6296      6301      6309
      6301      6303      6306      6308      6301      6303      6306      6312
      6301      6309      6312      6306      6301      6309      6312      6314
      6303      6301      6309      6311      6303      6301      6309      6312
      6303      6306      6312      6309      6303      6306      6312      6314
      6305      6303      6301      6309      6305      6303      6306      6308
      6305      6303      6306      6312      6306      6303      6301      6309
      6306      6312      6309      6311      6308      6306      6312      6309
      6308      6306      6312      6314      6311      6309      6312      6314
      6316      6321      6323      6325      6316      6321      6323      6326
      6316      6321      6329      6331      6316      6321      6329      6332
      6318      6316      6321      6323      6318      6316      6321      6329
      6319      6316      6321      6323      6319      6316      6321      6329
      6320      6316      6321      6323      6320      6316      6321      6329
      6321      6323      6326      6328      6321      6323      6326      6332
      6321      6329      6332      6326      6321      6329      6332      6334
      6323      6321      6329      6331      6323      6321      6329      6332
      6323      6326      6332      6329      6323      6326      6332      6334
      6325      6323      6321      6329      6325      6323      6326      6328
      6325      6323      6326      6332      6326      6323      6321      6329
      6326      6332      6329      6331      6328      6326      6332      6329
      6328      6326      6332      6334      6331      6329      6332      6334
      6336      6341      6343      6345      6336      6341      6343      6346
      6336      6341      6349      6351      6336      6341      6349      6352
      6338      6336      6341      6343      6338      6336      6341      6349
      6339      6336      6341      6343      6339      6336      6341      6349
      6340      6336      6341      6343      6340      6336      6341      6349
      6341      6343      6346      6348      6341      6343      6346      6352
      6341      6349      6352      6346      6341      6349      6352      6354
      6343      6341      6349      6351      6343      6341      6349      6352
      6343      6346      6352      6349      6343      6346      6352      6354
      6345      6343      6341      6349      6345      6343      6346      6348
      6345      6343      6346      6352      6346      6343      6341      6349
      6346      6352      6349      6351      6348      6346      6352      6349
      6348      6346      6352      6354      6351      6349      6352      6354
      6356      6361      6363      6365      6356      6361      6363      6366
      6356      6361      6369      6371      6356      6361      6369      6372
      6358      6356      6361      6363      6358      6356      6361      6369
      6359      6356      6361      6363      6359      6356      6361      6369
      6360      6356      6361      6363      6360      6356      6361      6369
      6361      6363      6366      6368      6361      6363      6366      6372
      6361      6369      6372      6366      6361      6369      6372      6374
      6363      6361      6369      6371      6363      6361      6369      6372
      6363      6366      6372      6369      6363      6366      6372      6374
      6365      6363      6361      6369      6365      6363      6366      6368
      6365      6363      6366      6372      6366      6363      6361      6369
      6366      6372      6369      6371      6368      6366      6372      6369
      6368      6366      6372      6374      6371      6369      6372      6374
      6376      6381      6383      6385      6376      6381      6383      6386
      6376      6381      6389      6391      6376      6381      6389      6392
      6378      6376      6381      6383      6378      6376      6381      6389
      6379      6376      6381      6383      6379      6376      6381      6389
      6380      6376      6381      6383      6380      6376      6381      6389
      6381      6383      6386      6388      6381      6383      6386      6392
      6381      6389      6392      6386      6381      6389      6392      6394
      6383      6381      6389      6391      6383      6381      6389      6392
      6383      6386      6392      6389      6383      6386      6392      6394
      6385      6383      6381      6389      6385      6383      6386      6388
      6385      6383      6386      6392      6386      6383      6381      6389
      6386      6392      6389      6391      6388      6386      6392      6389
      6388      6386      6392      6394      6391      6389      6392      6394
      6396      6401      6403      6405      6396      6401      6403      6406
      6396      6401      6409      6411      6396      6401      6409      6412
      6398      6396      6401      6403      6398      6396      6401      6409
      6399      6396      6401      6403      6399      6396      6401      6409
      6400      6396      6401      6403      6400      6396      6401      6409
      6401      6403      6406      6408      6401      6403      6406      6412
      6401      6409      6412      6406      6401      6409      6412      6414
      6403      6401      6409      6411      6403      6401      6409      6412
      6403      6406      6412      6409      6403      6406      6412      6414
      6405      6403      6401      6409      6405      6403      6406      6408
      6405      6403      6406      6412      6406      6403      6401      6409
      6406      6412      6409      6411      6408      6406      6412      6409
      6408      6406      6412      6414      6411      6409      6412      6414
      6416      6421      6423      6425      6416      6421      6423      6426
      6416      6421      6429      6431      6416      6421      6429      6432
      6418      6416      6421      6423      6418      6416      6421      6429
      6419      6416      6421      6423      6419      6416      6421      6429
      6420      6416      6421      6423      6420      6416      6421      6429
      6421      6423      6426      6428      6421      6423      6426      6432
      6421      6429      6432      6426      6421      6429      6432      6434
      6423      6421      6429      6431      6423      6421      6429      6432
      6423      6426      6432      6429      6423      6426      6432      6434
      6425      6423      6421      6429      6425      6423      6426      6428
      6425      6423      6426      6432      6426      6423      6421      6429
      6426      6432      6429      6431      6428      6426      6432      6429
      6428      6426      6432      6434      6431      6429      6432      6434
      6436      6441      6443      6445      6436      6441      6443      6446
      6436      6441      6449      6451      6436      6441      6449      6452
      6438      6436      6441      6443      6438      6436      6441      6449
      6439      6436      6441      6443      6439      6436      6441      6449
      6440      6436      6441      6443      6440      6436      6441      6449
      6441      6443      6446      6448      6441      6443      6446      6452
      6441      6449      6452      6446      6441      6449      6452      6454
      6443      6441      6449      6451      6443      6441      6449      6452
      6443      6446      6452      6449      6443      6446      6452      6454
      6445      6443      6441      6449      6445      6443      6446      6448
      6445      6443      6446      6452      6446      6443      6441      6449
      6446      6452      6449      6451      6448      6446      6452      6449
      6448      6446      6452      6454      6451      6449      6452      6454
      6456      6461      6463      6465      6456      6461      6463      6466
      6456      6461      6469      6471      6456      6461      6469      6472
      6458      6456      6461      6463      6458      6456      6461      6469
      6459      6456      6461      6463      6459      6456      6461      6469
      6460      6456      6461      6463      6460      6456      6461      6469
      6461      6463      6466      6468      6461      6463      6466      6472
      6461      6469      6472      6466      6461      6469      6472      6474
      6463      6461      6469      6471      6463      6461      6469      6472
      6463      6466      6472      6469      6463      6466      6472      6474
      6465      6463      6461      6469      6465      6463      6466      6468
      6465      6463      6466      6472      6466      6463      6461      6469
      6466      6472      6469      6471      6468      6466      6472      6469
      6468      6466      6472      6474      6471      6469      6472      6474
      6476      6481      6483      6485      6476      6481      6483      6486
      6476      6481      6489      6491      6476      6481      6489      6492
      6478      6476      6481      6483      6478      6476      6481      6489
      6479      6476      6481      6483      6479      6476      6481      6489
      6480      6476      6481      6483      6480      6476      6481      6489
      6481      6483      6486      6488      6481      6483      6486      6492
      6481      6489      6492      6486      6481      6489      6492      6494
      6483      6481      6489      6491      6483      6481      6489      6492
      6483      6486      6492      6489      6483      6486      6492      6494
      6485      6483      6481      6489      6485      6483      6486      6488
      6485      6483      6486      6492      6486      6483      6481      6489
      6486      6492      6489      6491      6488      6486      6492      6489
      6488      6486      6492      6494      6491      6489      6492      6494
      6496      6501      6503      6505      6496      6501      6503      6506
      6496      6501      6509      6511      6496      6501      6509      6512
      6498      6496      6501      6503      6498      6496      6501      6509
      6499      6496      6501      6503      6499      6496      6501      6509
      6500      6496      6501      6503      6500      6496      6501      6509
      6501      6503      6506      6508      6501      6503      6506      6512
      6501      6509      6512      6506      6501      6509      6512      6514
      6503      6501      6509      6511      6503      6501      6509      6512
      6503      6506      6512      6509      6503      6506      6512      6514
      6505      6503      6501      6509      6505      6503      6506      6508
      6505      6503      6506      6512      6506      6503      6501      6509
      6506      6512      6509      6511      6508      6506      6512      6509
      6508      6506      6512      6514      6511      6509      6512      6514
      6516      6521      6523      6525      6516      6521      6523      6526
      6516      6521      6529      6531      6516      6521      6529      6532
      6518      6516      6521      6523      6518      6516      6521      6529
      6519      6516      6521      6523      6519      6516      6521      6529
      6520      6516      6521      6523      6520      6516      6521      6529
      6521      6523      6526      6528      6521      6523      6526      6532
      6521      6529      6532      6526      6521      6529      6532      6534
      6523      6521      6529      6531      6523      6521      6529      6532
      6523      6526      6532      6529      6523      6526      6532      6534
      6525      6523      6521      6529      6525      6523      6526      6528
      6525      6523      6526      6532      6526      6523      6521      6529
      6526      6532      6529      6531      6528      6526      6532      6529
      6528      6526      6532      6534      6531      6529      6532      6534
      6536      6541      6543      6545      6536      6541      6543      6546
      6536      6541      6549      6551      6536      6541      6549      6552
      6538      6536      6541      6543      6538      6536      6541      6549
      6539      6536      6541      6543      6539      6536      6541      6549
      6540      6536      6541      6543      6540      6536      6541      6549
      6541      6543      6546      6548      6541      6543      6546      6552
      6541      6549      6552      6546      6541      6549      6552      6554
      6543      6541      6549      6551      6543      6541      6549      6552
      6543      6546      6552      6549      6543      6546      6552      6554
      6545      6543      6541      6549      6545      6543      6546      6548
      6545      6543      6546      6552      6546      6543      6541      6549
      6546      6552      6549      6551      6548      6546      6552      6549
      6548      6546      6552      6554      6551      6549      6552      6554
      6556      6561      6563      6565      6556      6561      6563      6566
      6556      6561      6569      6571      6556      6561      6569      6572
      6558      6556      6561      6563      6558      6556      6561      6569
      6559      6556      6561      6563      6559      6556      6561      6569
      6560      6556      6561      6563      6560      6556      6561      6569
      6561      6563      6566      6568      6561      6563      6566      6572
      6561      6569      6572      6566      6561      6569      6572      6574
      6563      6561      6569      6571      6563      6561      6569      6572
      6563      6566      6572      6569      6563      6566      6572      6574
      6565      6563      6561      6569      6565      6563      6566      6568
      6565      6563      6566      6572      6566      6563      6561      6569
      6566      6572      6569      6571      6568      6566      6572      6569
      6568      6566      6572      6574      6571      6569      6572      6574
      6576      6581      6583      6585      6576      6581      6583      6586
      6576      6581      6589      6591      6576      6581      6589      6592
      6578      6576      6581      6583      6578      6576      6581      6589
      6579      6576      6581      6583      6579      6576      6581      6589
      6580      6576      6581      6583      6580      6576      6581      6589
      6581      6583      6586      6588      6581      6583      6586      6592
      6581      6589      6592      6586      6581      6589      6592      6594
      6583      6581      6589      6591      6583      6581      6589      6592
      6583      6586      6592      6589      6583      6586      6592      6594
      6585      6583      6581      6589      6585      6583      6586      6588
      6585      6583      6586      6592      6586      6583      6581      6589
      6586      6592      6589      6591      6588      6586      6592      6589
      6588      6586      6592      6594      6591      6589      6592      6594
      6596      6601      6603      6605      6596      6601      6603      6606
      6596      6601      6609      6611      6596      6601      6609      6612
      6598      6596      6601      6603      6598      6596      6601      6609
      6599      6596      6601      6603      6599      6596      6601      6609
      6600      6596      6601      6603      6600      6596      6601      6609
      6601      6603      6606      6608      6601      6603      6606      6612
      6601      6609      6612      6606      6601      6609      6612      6614
      6603      6601      6609      6611      6603      6601      6609      6612
      6603      6606      6612      6609      6603      6606      6612      6614
      6605      6603      6601      6609      6605      6603      6606      6608
      6605      6603      6606      6612      6606      6603      6601      6609
      6606      6612      6609      6611      6608      6606      6612      6609
      6608      6606      6612      6614      6611      6609      6612      6614
      6616      6621      6623      6625      6616      6621      6623      6626
      6616      6621      6629      6631      6616      6621      6629      6632
      6618      6616      6621      6623      6618      6616      6621      6629
      6619      6616      6621      6623      6619      6616      6621      6629
      6620      6616      6621      6623      6620      6616      6621      6629
      6621      6623      6626      6628      6621      6623      6626      6632
      6621      6629      6632      6626      6621      6629      6632      6634
      6623      6621      6629      6631      6623      6621      6629      6632
      6623      6626      6632      6629      6623      6626      6632      6634
      6625      6623      6621      6629      6625      6623      6626      6628
      6625      6623      6626      6632      6626      6623      6621      6629
      6626      6632      6629      6631      6628      6626      6632      6629
      6628      6626      6632      6634      6631      6629      6632      6634
      6636      6641      6643      6645      6636      6641      6643      6646
      6636      6641      6649      6651      6636      6641      6649      6652
      6638      6636      6641      6643      6638      6636      6641      6649
      6639      6636      6641      6643      6639      6636      6641      6649
      6640      6636      6641      6643      6640      6636      6641      6649
      6641      6643      6646      6648      6641      6643      6646      6652
      6641      6649      6652      6646      6641      6649      6652      6654
      6643      6641      6649      6651      6643      6641      6649      6652
      6643      6646      6652      6649      6643      6646      6652      6654
      6645      6643      6641      6649      6645      6643      6646      6648
      6645      6643      6646      6652      6646      6643      6641      6649
      6646      6652      6649      6651      6648      6646      6652      6649
      6648      6646      6652      6654      6651      6649      6652      6654
      6656      6661      6663      6665      6656      6661      6663      6666
      6656      6661      6669      6671      6656      6661      6669      6672
      6658      6656      6661      6663      6658      6656      6661      6669
      6659      6656      6661      6663      6659      6656      6661      6669
      6660      6656      6661      6663      6660      6656      6661      6669
      6661      6663      6666      6668      6661      6663      6666      6672
      6661      6669      6672      6666      6661      6669      6672      6674
      6663      6661      6669      6671      6663      6661      6669      6672
      6663      6666      6672      6669      6663      6666      6672      6674
      6665      6663      6661      6669      6665      6663      6666      6668
      6665      6663      6666      6672      6666      6663      6661      6669
      6666      6672      6669      6671      6668      6666      6672      6669
      6668      6666      6672      6674      6671      6669      6672      6674
      6676      6681      6683      6685      6676      6681      6683      6686
      6676      6681      6689      6691      6676      6681      6689      6692
      6678      6676      6681      6683      6678      6676      6681      6689
      6679      6676      6681      6683      6679      6676      6681      6689
      6680      6676      6681      6683      6680      6676      6681      6689
      6681      6683      6686      6688      6681      6683      6686      6692
      6681      6689      6692      6686      6681      6689      6692      6694
      6683      6681      6689      6691      6683      6681      6689      6692
      6683      6686      6692      6689      6683      6686      6692      6694
      6685      6683      6681      6689      6685      6683      6686      6688
      6685      6683      6686      6692      6686      6683      6681      6689
      6686      6692      6689      6691      6688      6686      6692      6689
      6688      6686      6692      6694      6691      6689      6692      6694
      6696      6701      6703      6705      6696      6701      6703      6706
      6696      6701      6709      6711      6696      6701      6709      6712
      6698      6696      6701      6703      6698      6696      6701      6709
      6699      6696      6701      6703      6699      6696      6701      6709
      6700      6696      6701      6703      6700      6696      6701      6709
      6701      6703      6706      6708      6701      6703      6706      6712
      6701      6709      6712      6706      6701      6709      6712      6714
      6703      6701      6709      6711      6703      6701      6709      6712
      6703      6706      6712      6709      6703      6706      6712      6714
      6705      6703      6701      6709      6705      6703      6706      6708
      6705      6703      6706      6712      6706      6703      6701      6709
      6706      6712      6709      6711      6708      6706      6712      6709
      6708      6706      6712      6714      6711      6709      6712      6714
      6716      6721      6723      6725      6716      6721      6723      6726
      6716      6721      6729      6731      6716      6721      6729      6732
      6718      6716      6721      6723      6718      6716      6721      6729
      6719      6716      6721      6723      6719      6716      6721      6729
      6720      6716      6721      6723      6720      6716      6721      6729
      6721      6723      6726      6728      6721      6723      6726      6732
      6721      6729      6732      6726      6721      6729      6732      6734
      6723      6721      6729      6731      6723      6721      6729      6732
      6723      6726      6732      6729      6723      6726      6732      6734
      6725      6723      6721      6729      6725      6723      6726      6728
      6725      6723      6726      6732      6726      6723      6721      6729
      6726      6732      6729      6731      6728      6726      6732      6729
      6728      6726      6732      6734      6731      6729      6732      6734
      6736      6741      6743      6745      6736      6741      6743      6746
      6736      6741      6749      6751      6736      6741      6749      6752
      6738      6736      6741      6743      6738      6736      6741      6749
      6739      6736      6741      6743      6739      6736      6741      6749
      6740      6736      6741      6743      6740      6736      6741      6749
      6741      6743      6746      6748      6741      6743      6746      6752
      6741      6749      6752      6746      6741      6749      6752      6754
      6743      6741      6749      6751      6743      6741      6749      6752
      6743      6746      6752      6749      6743      6746      6752      6754
      6745      6743      6741      6749      6745      6743      6746      6748
      6745      6743      6746      6752      6746      6743      6741      6749
      6746      6752      6749      6751      6748      6746      6752      6749
      6748      6746      6752      6754      6751      6749      6752      6754
      6756      6761      6763      6765      6756      6761      6763      6766
      6756      6761      6769      6771      6756      6761      6769      6772
      6758      6756      6761      6763      6758      6756      6761      6769
      6759      6756      6761      6763      6759      6756      6761      6769
      6760      6756      6761      6763      6760      6756      6761      6769
      6761      6763      6766      6768      6761      6763      6766      6772
      6761      6769      6772      6766      6761      6769      6772      6774
      6763      6761      6769      6771      6763      6761      6769      6772
      6763      6766      6772      6769      6763      6766      6772      6774
      6765      6763      6761      6769      6765      6763      6766      6768
      6765      6763      6766      6772      6766      6763      6761      6769
      6766      6772      6769      6771      6768      6766      6772      6769
      6768      6766      6772      6774      6771      6769      6772      6774
      6776      6781      6783      6785      6776      6781      6783      6786
      6776      6781      6789      6791      6776      6781      6789      6792
      6778      6776      6781      6783      6778      6776      6781      6789
      6779      6776      6781      6783      6779      6776      6781      6789
      6780      6776      6781      6783      6780      6776      6781      6789
      6781      6783      6786      6788      6781      6783      6786      6792
      6781      6789      6792      6786      6781      6789      6792      6794
      6783      6781      6789      6791      6783      6781      6789      6792
      6783      6786      6792      6789      6783      6786      6792      6794
      6785      6783      6781      6789      6785      6783      6786      6788
      6785      6783      6786      6792      6786      6783      6781      6789
      6786      6792      6789      6791      6788      6786      6792      6789
      6788      6786      6792      6794      6791      6789      6792      6794
      6796      6801      6803      6805      6796      6801      6803      6806
      6796      6801      6809      6811      6796      6801      6809      6812
      6798      6796      6801      6803      6798      6796      6801      6809
      6799      6796      6801      6803      6799      6796      6801      6809
      6800      6796      6801      6803      6800      6796      6801      6809
      6801      6803      6806      6808      6801      6803      6806      6812
      6801      6809      6812      6806      6801      6809      6812      6814
      6803      6801      6809      6811      6803      6801      6809      6812
      6803      6806      6812      6809      6803      6806      6812      6814
      6805      6803      6801      6809      6805      6803      6806      6808
      6805      6803      6806      6812      6806      6803      6801      6809
      6806      6812      6809      6811      6808      6806      6812      6809
      6808      6806      6812      6814      6811      6809      6812      6814
      6816      6821      6823      6825      6816      6821      6823      6826
      6816      6821      6829      6831      6816      6821      6829      6832
      6818      6816      6821      6823      6818      6816      6821      6829
      6819      6816      6821      6823      6819      6816      6821      6829
      6820      6816      6821      6823      6820      6816      6821      6829
      6821      6823      6826      6828      6821      6823      6826      6832
      6821      6829      6832      6826      6821      6829      6832      6834
      6823      6821      6829      6831      6823      6821      6829      6832
      6823      6826      6832      6829      6823      6826      6832      6834
      6825      6823      6821      6829      6825      6823      6826      6828
      6825      6823      6826      6832      6826      6823      6821      6829
      6826      6832      6829      6831      6828      6826      6832      6829
      6828      6826      6832      6834      6831      6829      6832      6834
      6836      6841      6843      6845      6836      6841      6843      6846
      6836      6841      6849      6851      6836      6841      6849      6852
      6838      6836      6841      6843      6838      6836      6841      6849
      6839      6836      6841      6843      6839      6836      6841      6849
      6840      6836      6841      6843      6840      6836      6841      6849
      6841      6843      6846      6848      6841      6843      6846      6852
      6841      6849      6852      6846      6841      6849      6852      6854
      6843      6841      6849      6851      6843      6841      6849      6852
      6843      6846      6852      6849      6843      6846      6852      6854
      6845      6843      6841      6849      6845      6843      6846      6848
      6845      6843      6846      6852      6846      6843      6841      6849
      6846      6852      6849      6851      6848      6846      6852      6849
      6848      6846      6852      6854      6851      6849      6852      6854
      6856      6861      6863      6865      6856      6861      6863      6866
      6856      6861      6869      6871      6856      6861      6869      6872
      6858      6856      6861      6863      6858      6856      6861      6869
      6859      6856      6861      6863      6859      6856      6861      6869
      6860      6856      6861      6863      6860      6856      6861      6869
      6861      6863      6866      6868      6861      6863      6866      6872
      6861      6869      6872      6866      6861      6869      6872      6874
      6863      6861      6869      6871      6863      6861      6869      6872
      6863      6866      6872      6869      6863      6866      6872      6874
      6865      6863      6861      6869      6865      6863      6866      6868
      6865      6863      6866      6872      6866      6863      6861      6869
      6866      6872      6869      6871      6868      6866      6872      6869
      6868      6866      6872      6874      6871      6869      6872      6874
      6876      6881      6883      6885      6876      6881      6883      6886
      6876      6881      6889      6891      6876      6881      6889      6892
      6878      6876      6881      6883      6878      6876      6881      6889
      6879      6876      6881      6883      6879      6876      6881      6889
      6880      6876      6881      6883      6880      6876      6881      6889
      6881      6883      6886      6888      6881      6883      6886      6892
      6881      6889      6892      6886      6881      6889      6892      6894
      6883      6881      6889      6891      6883      6881      6889      6892
      6883      6886      6892      6889      6883      6886      6892      6894
      6885      6883      6881      6889      6885      6883      6886      6888
      6885      6883      6886      6892      6886      6883      6881      6889
      6886      6892      6889      6891      6888      6886      6892      6889
      6888      6886      6892      6894      6891      6889      6892      6894
      6896      6901      6903      6905      6896      6901      6903      6906
      6896      6901      6909      6911      6896      6901      6909      6912
      6898      6896      6901      6903      6898      6896      6901      6909
      6899      6896      6901      6903      6899      6896      6901      6909
      6900      6896      6901      6903      6900      6896      6901      6909
      6901      6903      6906      6908      6901      6903      6906      6912
      6901      6909      6912      6906      6901      6909      6912      6914
      6903      6901      6909      6911      6903      6901      6909      6912
      6903      6906      6912      6909      6903      6906      6912      6914
      6905      6903      6901      6909      6905      6903      6906      6908
      6905      6903      6906      6912      6906      6903      6901      6909
      6906      6912      6909      6911      6908      6906      6912      6909
      6908      6906      6912      6914      6911      6909      6912      6914
      6916      6921      6923      6925      6916      6921      6923      6926
      6916      6921      6929      6931      6916      6921      6929      6932
      6918      6916      6921      6923      6918      6916      6921      6929
      6919      6916      6921      6923      6919      6916      6921      6929
      6920      6916      6921      6923      6920      6916      6921      6929
      6921      6923      6926      6928      6921      6923      6926      6932
      6921      6929      6932      6926      6921      6929      6932      6934
      6923      6921      6929      6931      6923      6921      6929      6932
      6923      6926      6932      6929      6923      6926      6932      6934
      6925      6923      6921      6929      6925      6923      6926      6928
      6925      6923      6926      6932      6926      6923      6921      6929
      6926      6932      6929      6931      6928      6926      6932      6929
      6928      6926      6932      6934      6931      6929      6932      6934
      6936      6941      6943      6945      6936      6941      6943      6946
      6936      6941      6949      6951      6936      6941      6949      6952
      6938      6936      6941      6943      6938      6936      6941      6949
      6939      6936      6941      6943      6939      6936      6941      6949
      6940      6936      6941      6943      6940      6936      6941      6949
      6941      6943      6946      6948      6941      6943      6946      6952
      6941      6949      6952      6946      6941      6949      6952      6954
      6943      6941      6949      6951      6943      6941      6949      6952
      6943      6946      6952      6949      6943      6946      6952      6954
      6945      6943      6941      6949      6945      6943      6946      6948
      6945      6943      6946      6952      6946      6943      6941      6949
      6946      6952      6949      6951      6948      6946      6952      6949
      6948      6946      6952      6954      6951      6949      6952      6954
      6956      6961      6963      6965      6956      6961      6963      6966
      6956      6961      6969      6971      6956      6961      6969      6972
      6958      6956      6961      6963      6958      6956      6961      6969
      6959      6956      6961      6963      6959      6956      6961      6969
      6960      6956      6961      6963      6960      6956      6961      6969
      6961      6963      6966      6968      6961      6963      6966      6972
      6961      6969      6972      6966      6961      6969      6972      6974
      6963      6961      6969      6971      6963      6961      6969      6972
      6963      6966      6972      6969      6963      6966      6972      6974
      6965      6963      6961      6969      6965      6963      6966      6968
      6965      6963      6966      6972      6966      6963      6961      6969
      6966      6972      6969      6971      6968      6966      6972      6969
      6968      6966      6972      6974      6971      6969      6972      6974
      6976      6981      6983      6985      6976      6981      6983      6986
      6976      6981      6989      6991      6976      6981      6989      6992
      6978      6976      6981      6983      6978      6976      6981      6989
      6979      6976      6981      6983      6979      6976      6981      6989
      6980      6976      6981      6983      6980      6976      6981      6989
      6981      6983      6986      6988      6981      6983      6986      6992
      6981      6989      6992      6986      6981      6989      6992      6994
      6983      6981      6989      6991      6983      6981      6989      6992
      6983      6986      6992      6989      6983      6986      6992      6994
      6985      6983      6981      6989      6985      6983      6986      6988
      6985      6983      6986      6992      6986      6983      6981      6989
      6986      6992      6989      6991      6988      6986      6992      6989
      6988      6986      6992      6994      6991      6989      6992      6994
      6996      7001      7003      7005      6996      7001      7003      7006
      6996      7001      7009      7011      6996      7001      7009      7012
      6998      6996      7001      7003      6998      6996      7001      7009
      6999      6996      7001      7003      6999      6996      7001      7009
      7000      6996      7001      7003      7000      6996      7001      7009
      7001      7003      7006      7008      7001      7003      7006      7012
      7001      7009      7012      7006      7001      7009      7012      7014
      7003      7001      7009      7011      7003      7001      7009      7012
      7003      7006      7012      7009      7003      7006      7012      7014
      7005      7003      7001      7009      7005      7003      7006      7008
      7005      7003      7006      7012      7006      7003      7001      7009
      7006      7012      7009      7011      7008      7006      7012      7009
      7008      7006      7012      7014      7011      7009      7012      7014
      7016      7021      7023      7025      7016      7021      7023      7026
      7016      7021      7029      7031      7016      7021      7029      7032
      7018      7016      7021      7023      7018      7016      7021      7029
      7019      7016      7021      7023      7019      7016      7021      7029
      7020      7016      7021      7023      7020      7016      7021      7029
      7021      7023      7026      7028      7021      7023      7026      7032
      7021      7029      7032      7026      7021      7029      7032      7034
      7023      7021      7029      7031      7023      7021      7029      7032
      7023      7026      7032      7029      7023      7026      7032      7034
      7025      7023      7021      7029      7025      7023      7026      7028
      7025      7023      7026      7032      7026      7023      7021      7029
      7026      7032      7029      7031      7028      7026      7032      7029
      7028      7026      7032      7034      7031      7029      7032      7034
      7036      7041      7043      7045      7036      7041      7043      7046
      7036      7041      7049      7051      7036      7041      7049      7052
      7038      7036      7041      7043      7038      7036      7041      7049
      7039      7036      7041      7043      7039      7036      7041      7049
      7040      7036      7041      7043      7040      7036      7041      7049
      7041      7043      7046      7048      7041      7043      7046      7052
      7041      7049      7052      7046      7041      7049      7052      7054
      7043      7041      7049      7051      7043      7041      7049      7052
      7043      7046      7052      7049      7043      7046      7052      7054
      7045      7043      7041      7049      7045      7043      7046      7048
      7045      7043      7046      7052      7046      7043      7041      7049
      7046      7052      7049      7051      7048      7046      7052      7049
      7048      7046      7052      7054      7051      7049      7052      7054
      7056      7061      7063      7065      7056      7061      7063      7066
      7056      7061      7069      7071      7056      7061      7069      7072
      7058      7056      7061      7063      7058      7056      7061      7069
      7059      7056      7061      7063      7059      7056      7061      7069
      7060      7056      7061      7063      7060      7056      7061      7069
      7061      7063      7066      7068      7061      7063      7066      7072
      7061      7069      7072      7066      7061      7069      7072      7074
      7063      7061      7069      7071      7063      7061      7069      7072
      7063      7066      7072      7069      7063      7066      7072      7074
      7065      7063      7061      7069      7065      7063      7066      7068
      7065      7063      7066      7072      7066      7063      7061      7069
      7066      7072      7069      7071      7068      7066      7072      7069
      7068      7066      7072      7074      7071      7069      7072      7074
      7076      7081      7083      7085      7076      7081      7083      7086
      7076      7081      7089      7091      7076      7081      7089      7092
      7078      7076      7081      7083      7078      7076      7081      7089
      7079      7076      7081      7083      7079      7076      7081      7089
      7080      7076      7081      7083      7080      7076      7081      7089
      7081      7083      7086      7088      7081      7083      7086      7092
      7081      7089      7092      7086      7081      7089      7092      7094
      7083      7081      7089      7091      7083      7081      7089      7092
      7083      7086      7092      7089      7083      7086      7092      7094
      7085      7083      7081      7089      7085      7083      7086      7088
      7085      7083      7086      7092      7086      7083      7081      7089
      7086      7092      7089      7091      7088      7086      7092      7089
      7088      7086      7092      7094      7091      7089      7092      7094
      7096      7101      7103      7105      7096      7101      7103      7106
      7096      7101      7109      7111      7096      7101      7109      7112
      7098      7096      7101      7103      7098      7096      7101      7109
      7099      7096      7101      7103      7099      7096      7101      7109
      7100      7096      7101      7103      7100      7096      7101      7109
      7101      7103      7106      7108      7101      7103      7106      7112
      7101      7109      7112      7106      7101      7109      7112      7114
      7103      7101      7109      7111      7103      7101      7109      7112
      7103      7106      7112      7109      7103      7106      7112      7114
      7105      7103      7101      7109      7105      7103      7106      7108
      7105      7103      7106      7112      7106      7103      7101      7109
      7106      7112      7109      7111      7108      7106      7112      7109
      7108      7106      7112      7114      7111      7109      7112      7114
      7116      7121      7123      7125      7116      7121      7123      7126
      7116      7121      7129      7131      7116      7121      7129      7132
      7118      7116      7121      7123      7118      7116      7121      7129
      7119      7116      7121      7123      7119      7116      7121      7129
      7120      7116      7121      7123      7120      7116      7121      7129
      7121      7123      7126      7128      7121      7123      7126      7132
      7121      7129      7132      7126      7121      7129      7132      7134
      7123      7121      7129      7131      7123      7121      7129      7132
      7123      7126      7132      7129      7123      7126      7132      7134
      7125      7123      7121      7129      7125      7123      7126      7128
      7125      7123      7126      7132      7126      7123      7121      7129
      7126      7132      7129      7131      7128      7126      7132      7129
      7128      7126      7132      7134      7131      7129      7132      7134
      7136      7141      7143      7145      7136      7141      7143      7146
      7136      7141      7149      7151      7136      7141      7149      7152
      7138      7136      7141      7143      7138      7136      7141      7149
      7139      7136      7141      7143      7139      7136      7141      7149
      7140      7136      7141      7143      7140      7136      7141      7149
      7141      7143      7146      7148      7141      7143      7146      7152
      7141      7149      7152      7146      7141      7149      7152      7154
      7143      7141      7149      7151      7143      7141      7149      7152
      7143      7146      7152      7149      7143      7146      7152      7154
      7145      7143      7141      7149      7145      7143      7146      7148
      7145      7143      7146      7152      7146      7143      7141      7149
      7146      7152      7149      7151      7148      7146      7152      7149
      7148      7146      7152      7154      7151      7149      7152      7154
      7156      7161      7163      7165      7156      7161      7163      7166
      7156      7161      7169      7171      7156      7161      7169      7172
      7158      7156      7161      7163      7158      7156      7161      7169
      7159      7156      7161      7163      7159      7156      7161      7169
      7160      7156      7161      7163      7160      7156      7161      7169
      7161      7163      7166      7168      7161      7163      7166      7172
      7161      7169      7172      7166      7161      7169      7172      7174
      7163      7161      7169      7171      7163      7161      7169      7172
      7163      7166      7172      7169      7163      7166      7172      7174
      7165      7163      7161      7169      7165      7163      7166      7168
      7165      7163      7166      7172      7166      7163      7161      7169
      7166      7172      7169      7171      7168      7166      7172      7169
      7168      7166      7172      7174      7171      7169      7172      7174
      7176      7181      7183      7185      7176      7181      7183      7186
      7176      7181      7189      7191      7176      7181      7189      7192
      7178      7176      7181      7183      7178      7176      7181      7189
      7179      7176      7181      7183      7179      7176      7181      7189
      7180      7176      7181      7183      7180      7176      7181      7189
      7181      7183      7186      7188      7181      7183      7186      7192
      7181      7189      7192      7186      7181      7189      7192      7194
      7183      7181      7189      7191      7183      7181      7189      7192
      7183      7186      7192      7189      7183      7186      7192      7194
      7185      7183      7181      7189      7185      7183      7186      7188
      7185      7183      7186      7192      7186      7183      7181      7189
      7186      7192      7189      7191      7188      7186      7192      7189
      7188      7186      7192      7194      7191      7189      7192      7194
      7196      7201      7203      7205      7196      7201      7203      7206
      7196      7201      7209      7211      7196      7201      7209      7212
      7198      7196      7201      7203      7198      7196      7201      7209
      7199      7196      7201      7203      7199      7196      7201      7209
      7200      7196      7201      7203      7200      7196      7201      7209
      7201      7203      7206      7208      7201      7203      7206      7212
      7201      7209      7212      7206      7201      7209      7212      7214
      7203      7201      7209      7211      7203      7201      7209      7212
      7203      7206      7212      7209      7203      7206      7212      7214
      7205      7203      7201      7209      7205      7203      7206      7208
      7205      7203      7206      7212      7206      7203      7201      7209
      7206      7212      7209      7211      7208      7206      7212      7209
      7208      7206      7212      7214      7211      7209      7212      7214
      7216      7221      7223      7225      7216      7221      7223      7226
      7216      7221      7229      7231      7216      7221      7229      7232
      7218      7216      7221      7223      7218      7216      7221      7229
      7219      7216      7221      7223      7219      7216      7221      7229
      7220      7216      7221      7223      7220      7216      7221      7229
      7221      7223      7226      7228      7221      7223      7226      7232
      7221      7229      7232      7226      7221      7229      7232      7234
      7223      7221      7229      7231      7223      7221      7229      7232
      7223      7226      7232      7229      7223      7226      7232      7234
      7225      7223      7221      7229      7225      7223      7226      7228
      7225      7223      7226      7232      7226      7223      7221      7229
      7226      7232      7229      7231      7228      7226      7232      7229
      7228      7226      7232      7234      7231      7229      7232      7234
      7236      7241      7243      7245      7236      7241      7243      7246
      7236      7241      7249      7251      7236      7241      7249      7252
      7238      7236      7241      7243      7238      7236      7241      7249
      7239      7236      7241      7243      7239      7236      7241      7249
      7240      7236      7241      7243      7240      7236      7241      7249
      7241      7243      7246      7248      7241      7243      7246      7252
      7241      7249      7252      7246      7241      7249      7252      7254
      7243      7241      7249      7251      7243      7241      7249      7252
      7243      7246      7252      7249      7243      7246      7252      7254
      7245      7243      7241      7249      7245      7243      7246      7248
      7245      7243      7246      7252      7246      7243      7241      7249
      7246      7252      7249      7251      7248      7246      7252      7249
      7248      7246      7252      7254      7251      7249      7252      7254
      7256      7261      7263      7265      7256      7261      7263      7266
      7256      7261      7269      7271      7256      7261      7269      7272
      7258      7256      7261      7263      7258      7256      7261      7269
      7259      7256      7261      7263      7259      7256      7261      7269
      7260      7256      7261      7263      7260      7256      7261      7269
      7261      7263      7266      7268      7261      7263      7266      7272
      7261      7269      7272      7266      7261      7269      7272      7274
      7263      7261      7269      7271      7263      7261      7269      7272
      7263      7266      7272      7269      7263      7266      7272      7274
      7265      7263      7261      7269      7265      7263      7266      7268
      7265      7263      7266      7272      7266      7263      7261      7269
      7266      7272      7269      7271      7268      7266      7272      7269
      7268      7266      7272      7274      7271      7269      7272      7274
      7276      7281      7283      7285      7276      7281      7283      7286
      7276      7281      7289      7291      7276      7281      7289      7292
      7278      7276      7281      7283      7278      7276      7281      7289
      7279      7276      7281      7283      7279      7276      7281      7289
      7280      7276      7281      7283      7280      7276      7281      7289
      7281      7283      7286      7288      7281      7283      7286      7292
      7281      7289      7292      7286      7281      7289      7292      7294
      7283      7281      7289      7291      7283      7281      7289      7292
      7283      7286      7292      7289      7283      7286      7292      7294
      7285      7283      7281      7289      7285      7283      7286      7288
      7285      7283      7286      7292      7286      7283      7281      7289
      7286      7292      7289      7291      7288      7286      7292      7289
      7288      7286      7292      7294      7291      7289      7292      7294
      7296      7301      7303      7305      7296      7301      7303      7306
      7296      7301      7309      7311      7296      7301      7309      7312
      7298      7296      7301      7303      7298      7296      7301      7309
      7299      7296      7301      7303      7299      7296      7301      7309
      7300      7296      7301      7303      7300      7296      7301      7309
      7301      7303      7306      7308      7301      7303      7306      7312
      7301      7309      7312      7306      7301      7309      7312      7314
      7303      7301      7309      7311      7303      7301      7309      7312
      7303      7306      7312      7309      7303      7306      7312      7314
      7305      7303      7301      7309      7305      7303      7306      7308
      7305      7303      7306      7312      7306      7303      7301      7309
      7306      7312      7309      7311      7308      7306      7312      7309
      7308      7306      7312      7314      7311      7309      7312      7314
      7316      7321      7323      7325      7316      7321      7323      7326
      7316      7321      7329      7331      7316      7321      7329      7332
      7318      7316      7321      7323      7318      7316      7321      7329
      7319      7316      7321      7323      7319      7316      7321      7329
      7320      7316      7321      7323      7320      7316      7321      7329
      7321      7323      7326      7328      7321      7323      7326      7332
      7321      7329      7332      7326      7321      7329      7332      7334
      7323      7321      7329      7331      7323      7321      7329      7332
      7323      7326      7332      7329      7323      7326      7332      7334
      7325      7323      7321      7329      7325      7323      7326      7328
      7325      7323      7326      7332      7326      7323      7321      7329
      7326      7332      7329      7331      7328      7326      7332      7329
      7328      7326      7332      7334      7331      7329      7332      7334
      7336      7341      7343      7345      7336      7341      7343      7346
      7336      7341      7349      7351      7336      7341      7349      7352
      7338      7336      7341      7343      7338      7336      7341      7349
      7339      7336      7341      7343      7339      7336      7341      7349
      7340      7336      7341      7343      7340      7336      7341      7349
      7341      7343      7346      7348      7341      7343      7346      7352
      7341      7349      7352      7346      7341      7349      7352      7354
      7343      7341      7349      7351      7343      7341      7349      7352
      7343      7346      7352      7349      7343      7346      7352      7354
      7345      7343      7341      7349      7345      7343      7346      7348
      7345      7343      7346      7352      7346      7343      7341      7349
      7346      7352      7349      7351      7348      7346      7352      7349
      7348      7346      7352      7354      7351      7349      7352      7354
      7356      7361      7363      7365      7356      7361      7363      7366
      7356      7361      7369      7371      7356      7361      7369      7372
      7358      7356      7361      7363      7358      7356      7361      7369
      7359      7356      7361      7363      7359      7356      7361      7369
      7360      7356      7361      7363      7360      7356      7361      7369
      7361      7363      7366      7368      7361      7363      7366      7372
      7361      7369      7372      7366      7361      7369      7372      7374
      7363      7361      7369      7371      7363      7361      7369      7372
      7363      7366      7372      7369      7363      7366      7372      7374
      7365      7363      7361      7369      7365      7363      7366      7368
      7365      7363      7366      7372      7366      7363      7361      7369
      7366      7372      7369      7371      7368      7366      7372      7369
      7368      7366      7372      7374      7371      7369      7372      7374
      7376      7381      7383      7385      7376      7381      7383      7386
      7376      7381      7389      7391      7376      7381      7389      7392
      7378      7376      7381      7383      7378      7376      7381      7389
      7379      7376      7381      7383      7379      7376      7381      7389
      7380      7376      7381      7383      7380      7376      7381      7389
      7381      7383      7386      7388      7381      7383      7386      7392
      7381      7389      7392      7386      7381      7389      7392      7394
      7383      7381      7389      7391      7383      7381      7389      7392
      7383      7386      7392      7389      7383      7386      7392      7394
      7385      7383      7381      7389      7385      7383      7386      7388
      7385      7383      7386      7392      7386      7383      7381      7389
      7386      7392      7389      7391      7388      7386      7392      7389
      7388      7386      7392      7394      7391      7389      7392      7394
      7396      7401      7403      7405      7396      7401      7403      7406
      7396      7401      7409      7411      7396      7401      7409      7412
      7398      7396      7401      7403      7398      7396      7401      7409
      7399      7396      7401      7403      7399      7396      7401      7409
      7400      7396      7401      7403      7400      7396      7401      7409
      7401      7403      7406      7408      7401      7403      7406      7412
      7401      7409      7412      7406      7401      7409      7412      7414
      7403      7401      7409      7411      7403      7401      7409      7412
      7403      7406      7412      7409      7403      7406      7412      7414
      7405      7403      7401      7409      7405      7403      7406      7408
      7405      7403      7406      7412      7406      7403      7401      7409
      7406      7412      7409      7411      7408      7406      7412      7409
      7408      7406      7412      7414      7411      7409      7412      7414
      7416      7421      7423      7425      7416      7421      7423      7426
      7416      7421      7429      7431      7416      7421      7429      7432
      7418      7416      7421      7423      7418      7416      7421      7429
      7419      7416      7421      7423      7419      7416      7421      7429
      7420      7416      7421      7423      7420      7416      7421      7429
      7421      7423      7426      7428      7421      7423      7426      7432
      7421      7429      7432      7426      7421      7429      7432      7434
      7423      7421      7429      7431      7423      7421      7429      7432
      7423      7426      7432      7429      7423      7426      7432      7434
      7425      7423      7421      7429      7425      7423      7426      7428
      7425      7423      7426      7432      7426      7423      7421      7429
      7426      7432      7429      7431      7428      7426      7432      7429
      7428      7426      7432      7434      7431      7429      7432      7434
      7436      7441      7443      7445      7436      7441      7443      7446
      7436      7441      7449      7451      7436      7441      7449      7452
      7438      7436      7441      7443      7438      7436      7441      7449
      7439      7436      7441      7443      7439      7436      7441      7449
      7440      7436      7441      7443      7440      7436      7441      7449
      7441      7443      7446      7448      7441      7443      7446      7452
      7441      7449      7452      7446      7441      7449      7452      7454
      7443      7441      7449      7451      7443      7441      7449      7452
      7443      7446      7452      7449      7443      7446      7452      7454
      7445      7443      7441      7449      7445      7443      7446      7448
      7445      7443      7446      7452      7446      7443      7441      7449
      7446      7452      7449      7451      7448      7446      7452      7449
      7448      7446      7452      7454      7451      7449      7452      7454
      7456      7461      7463      7465      7456      7461      7463      7466
      7456      7461      7469      7471      7456      7461      7469      7472
      7458      7456      7461      7463      7458      7456      7461      7469
      7459      7456      7461      7463      7459      7456      7461      7469
      7460      7456      7461      7463      7460      7456      7461      7469
      7461      7463      7466      7468      7461      7463      7466      7472
      7461      7469      7472      7466      7461      7469      7472      7474
      7463      7461      7469      7471      7463      7461      7469      7472
      7463      7466      7472      7469      7463      7466      7472      7474
      7465      7463      7461      7469      7465      7463      7466      7468
      7465      7463      7466      7472      7466      7463      7461      7469
      7466      7472      7469      7471      7468      7466      7472      7469
      7468      7466      7472      7474      7471      7469      7472      7474
      7476      7481      7483      7485      7476      7481      7483      7486
      7476      7481      7489      7491      7476      7481      7489      7492
      7478      7476      7481      7483      7478      7476      7481      7489
      7479      7476      7481      7483      7479      7476      7481      7489
      7480      7476      7481      7483      7480      7476      7481      7489
      7481      7483      7486      7488      7481      7483      7486      7492
      7481      7489      7492      7486      7481      7489      7492      7494
      7483      7481      7489      7491      7483      7481      7489      7492
      7483      7486      7492      7489      7483      7486      7492      7494
      7485      7483      7481      7489      7485      7483      7486      7488
      7485      7483      7486      7492      7486      7483      7481      7489
      7486      7492      7489      7491      7488      7486      7492      7489
      7488      7486      7492      7494      7491      7489      7492      7494
      7496      7501      7503      7505      7496      7501      7503      7506
      7496      7501      7509      7511      7496      7501      7509      7512
      7498      7496      7501      7503      7498      7496      7501      7509
      7499      7496      7501      7503      7499      7496      7501      7509
      7500      7496      7501      7503      7500      7496      7501      7509
      7501      7503      7506      7508      7501      7503      7506      7512
      7501      7509      7512      7506      7501      7509      7512      7514
      7503      7501      7509      7511      7503      7501      7509      7512
      7503      7506      7512      7509      7503      7506      7512      7514
      7505      7503      7501      7509      7505      7503      7506      7508
      7505      7503      7506      7512      7506      7503      7501      7509
      7506      7512      7509      7511      7508      7506      7512      7509
      7508      7506      7512      7514      7511      7509      7512      7514
      7516      7521      7523      7525      7516      7521      7523      7526
      7516      7521      7529      7531      7516      7521      7529      7532
      7518      7516      7521      7523      7518      7516      7521      7529
      7519      7516      7521      7523      7519      7516      7521      7529
      7520      7516      7521      7523      7520      7516      7521      7529
      7521      7523      7526      7528      7521      7523      7526      7532
      7521      7529      7532      7526      7521      7529      7532      7534
      7523      7521      7529      7531      7523      7521      7529      7532
      7523      7526      7532      7529      7523      7526      7532      7534
      7525      7523      7521      7529      7525      7523      7526      7528
      7525      7523      7526      7532      7526      7523      7521      7529
      7526      7532      7529      7531      7528      7526      7532      7529
      7528      7526      7532      7534      7531      7529      7532      7534
      7536      7541      7543      7545      7536      7541      7543      7546
      7536      7541      7549      7551      7536      7541      7549      7552
      7538      7536      7541      7543      7538      7536      7541      7549
      7539      7536      7541      7543      7539      7536      7541      7549
      7540      7536      7541      7543      7540      7536      7541      7549
      7541      7543      7546      7548      7541      7543      7546      7552
      7541      7549      7552      7546      7541      7549      7552      7554
      7543      7541      7549      7551      7543      7541      7549      7552
      7543      7546      7552      7549      7543      7546      7552      7554
      7545      7543      7541      7549      7545      7543      7546      7548
      7545      7543      7546      7552      7546      7543      7541      7549
      7546      7552      7549      7551      7548      7546      7552      7549
      7548      7546      7552      7554      7551      7549      7552      7554
      7556      7561      7563      7565      7556      7561      7563      7566
      7556      7561      7569      7571      7556      7561      7569      7572
      7558      7556      7561      7563      7558      7556      7561      7569
      7559      7556      7561      7563      7559      7556      7561      7569
      7560      7556      7561      7563      7560      7556      7561      7569
      7561      7563      7566      7568      7561      7563      7566      7572
      7561      7569      7572      7566      7561      7569      7572      7574
      7563      7561      7569      7571      7563      7561      7569      7572
      7563      7566      7572      7569      7563      7566      7572      7574
      7565      7563      7561      7569      7565      7563      7566      7568
      7565      7563      7566      7572      7566      7563      7561      7569
      7566      7572      7569      7571      7568      7566      7572      7569
      7568      7566      7572      7574      7571      7569      7572      7574
      7576      7581      7583      7585      7576      7581      7583      7586
      7576      7581      7589      7591      7576      7581      7589      7592
      7578      7576      7581      7583      7578      7576      7581      7589
      7579      7576      7581      7583      7579      7576      7581      7589
      7580      7576      7581      7583      7580      7576      7581      7589
      7581      7583      7586      7588      7581      7583      7586      7592
      7581      7589      7592      7586      7581      7589      7592      7594
      7583      7581      7589      7591      7583      7581      7589      7592
      7583      7586      7592      7589      7583      7586      7592      7594
      7585      7583      7581      7589      7585      7583      7586      7588
      7585      7583      7586      7592      7586      7583      7581      7589
      7586      7592      7589      7591      7588      7586      7592      7589
      7588      7586      7592      7594      7591      7589      7592      7594
      7596      7601      7603      7605      7596      7601      7603      7606
      7596      7601      7609      7611      7596      7601      7609      7612
      7598      7596      7601      7603      7598      7596      7601      7609
      7599      7596      7601      7603      7599      7596      7601      7609
      7600      7596      7601      7603      7600      7596      7601      7609
      7601      7603      7606      7608      7601      7603      7606      7612
      7601      7609      7612      7606      7601      7609      7612      7614
      7603      7601      7609      7611      7603      7601      7609      7612
      7603      7606      7612      7609      7603      7606      7612      7614
      7605      7603      7601      7609      7605      7603      7606      7608
      7605      7603      7606      7612      7606      7603      7601      7609
      7606      7612      7609      7611      7608      7606      7612      7609
      7608      7606      7612      7614      7611      7609      7612      7614
      7616      7621      7623      7625      7616      7621      7623      7626
      7616      7621      7629      7631      7616      7621      7629      7632
      7618      7616      7621      7623      7618      7616      7621      7629
      7619      7616      7621      7623      7619      7616      7621      7629
      7620      7616      7621      7623      7620      7616      7621      7629
      7621      7623      7626      7628      7621      7623      7626      7632
      7621      7629      7632      7626      7621      7629      7632      7634
      7623      7621      7629      7631      7623      7621      7629      7632
      7623      7626      7632      7629      7623      7626      7632      7634
      7625      7623      7621      7629      7625      7623      7626      7628
      7625      7623      7626      7632      7626      7623      7621      7629
      7626      7632      7629      7631      7628      7626      7632      7629
      7628      7626      7632      7634      7631      7629      7632      7634
      7636      7641      7643      7645      7636      7641      7643      7646
      7636      7641      7649      7651      7636      7641      7649      7652
      7638      7636      7641      7643      7638      7636      7641      7649
      7639      7636      7641      7643      7639      7636      7641      7649
      7640      7636      7641      7643      7640      7636      7641      7649
      7641      7643      7646      7648      7641      7643      7646      7652
      7641      7649      7652      7646      7641      7649      7652      7654
      7643      7641      7649      7651      7643      7641      7649      7652
      7643      7646      7652      7649      7643      7646      7652      7654
      7645      7643      7641      7649      7645      7643      7646      7648
      7645      7643      7646      7652      7646      7643      7641      7649
      7646      7652      7649      7651      7648      7646      7652      7649
      7648      7646      7652      7654      7651      7649      7652      7654
      7656      7661      7663      7665      7656      7661      7663      7666
      7656      7661      7669      7671      7656      7661      7669      7672
      7658      7656      7661      7663      7658      7656      7661      7669
      7659      7656      7661      7663      7659      7656      7661      7669
      7660      7656      7661      7663      7660      7656      7661      7669
      7661      7663      7666      7668      7661      7663      7666      7672
      7661      7669      7672      7666      7661      7669      7672      7674
      7663      7661      7669      7671      7663      7661      7669      7672
      7663      7666      7672      7669      7663      7666      7672      7674
      7665      7663      7661      7669      7665      7663      7666      7668
      7665      7663      7666      7672      7666      7663      7661      7669
      7666      7672      7669      7671      7668      7666      7672      7669
      7668      7666      7672      7674      7671      7669      7672      7674
      7676      7681      7683      7685      7676      7681      7683      7686
      7676      7681      7689      7691      7676      7681      7689      7692
      7678      7676      7681      7683      7678      7676      7681      7689
      7679      7676      7681      7683      7679      7676      7681      7689
      7680      7676      7681      7683      7680      7676      7681      7689
      7681      7683      7686      7688      7681      7683      7686      7692
      7681      7689      7692      7686      7681      7689      7692      7694
      7683      7681      7689      7691      7683      7681      7689      7692
      7683      7686      7692      7689      7683      7686      7692      7694
      7685      7683      7681      7689      7685      7683      7686      7688
      7685      7683      7686      7692      7686      7683      7681      7689
      7686      7692      7689      7691      7688      7686      7692      7689
      7688      7686      7692      7694      7691      7689      7692      7694
      7696      7701      7703      7705      7696      7701      7703      7706
      7696      7701      7709      7711      7696      7701      7709      7712
      7698      7696      7701      7703      7698      7696      7701      7709
      7699      7696      7701      7703      7699      7696      7701      7709
      7700      7696      7701      7703      7700      7696      7701      7709
      7701      7703      7706      7708      7701      7703      7706      7712
      7701      7709      7712      7706      7701      7709      7712      7714
      7703      7701      7709      7711      7703      7701      7709      7712
      7703      7706      7712      7709      7703      7706      7712      7714
      7705      7703      7701      7709      7705      7703      7706      7708
      7705      7703      7706      7712      7706      7703      7701      7709
      7706      7712      7709      7711      7708      7706      7712      7709
      7708      7706      7712      7714      7711      7709      7712      7714
      7716      7721      7723      7725      7716      7721      7723      7726
      7716      7721      7729      7731      7716      7721      7729      7732
      7718      7716      7721      7723      7718      7716      7721      7729
      7719      7716      7721      7723      7719      7716      7721      7729
      7720      7716      7721      7723      7720      7716      7721      7729
      7721      7723      7726      7728      7721      7723      7726      7732
      7721      7729      7732      7726      7721      7729      7732      7734
      7723      7721      7729      7731      7723      7721      7729      7732
      7723      7726      7732      7729      7723      7726      7732      7734
      7725      7723      7721      7729      7725      7723      7726      7728
      7725      7723      7726      7732      7726      7723      7721      7729
      7726      7732      7729      7731      7728      7726      7732      7729
      7728      7726      7732      7734      7731      7729      7732      7734
      7736      7741      7743      7745      7736      7741      7743      7746
      7736      7741      7749      7751      7736      7741      7749      7752
      7738      7736      7741      7743      7738      7736      7741      7749
      7739      7736      7741      7743      7739      7736      7741      7749
      7740      7736      7741      7743      7740      7736      7741      7749
      7741      7743      7746      7748      7741      7743      7746      7752
      7741      7749      7752      7746      7741      7749      7752      7754
      7743      7741      7749      7751      7743      7741      7749      7752
      7743      7746      7752      7749      7743      7746      7752      7754
      7745      7743      7741      7749      7745      7743      7746      7748
      7745      7743      7746      7752      7746      7743      7741      7749
      7746      7752      7749      7751      7748      7746      7752      7749
      7748      7746      7752      7754      7751      7749      7752      7754
      7756      7761      7763      7765      7756      7761      7763      7766
      7756      7761      7769      7771      7756      7761      7769      7772
      7758      7756      7761      7763      7758      7756      7761      7769
      7759      7756      7761      7763      7759      7756      7761      7769
      7760      7756      7761      7763      7760      7756      7761      7769
      7761      7763      7766      7768      7761      7763      7766      7772
      7761      7769      7772      7766      7761      7769      7772      7774
      7763      7761      7769      7771      7763      7761      7769      7772
      7763      7766      7772      7769      7763      7766      7772      7774
      7765      7763      7761      7769      7765      7763      7766      7768
      7765      7763      7766      7772      7766      7763      7761      7769
      7766      7772      7769      7771      7768      7766      7772      7769
      7768      7766      7772      7774      7771      7769      7772      7774
      7776      7781      7783      7785      7776      7781      7783      7786
      7776      7781      7789      7791      7776      7781      7789      7792
      7778      7776      7781      7783      7778      7776      7781      7789
      7779      7776      7781      7783      7779      7776      7781      7789
      7780      7776      7781      7783      7780      7776      7781      7789
      7781      7783      7786      7788      7781      7783      7786      7792
      7781      7789      7792      7786      7781      7789      7792      7794
      7783      7781      7789      7791      7783      7781      7789      7792
      7783      7786      7792      7789      7783      7786      7792      7794
      7785      7783      7781      7789      7785      7783      7786      7788
      7785      7783      7786      7792      7786      7783      7781      7789
      7786      7792      7789      7791      7788      7786      7792      7789
      7788      7786      7792      7794      7791      7789      7792      7794
      7796      7801      7803      7805      7796      7801      7803      7806
      7796      7801      7809      7811      7796      7801      7809      7812
      7798      7796      7801      7803      7798      7796      7801      7809
      7799      7796      7801      7803      7799      7796      7801      7809
      7800      7796      7801      7803      7800      7796      7801      7809
      7801      7803      7806      7808      7801      7803      7806      7812
      7801      7809      7812      7806      7801      7809      7812      7814
      7803      7801      7809      7811      7803      7801      7809      7812
      7803      7806      7812      7809      7803      7806      7812      7814
      7805      7803      7801      7809      7805      7803      7806      7808
      7805      7803      7806      7812      7806      7803      7801      7809
      7806      7812      7809      7811      7808      7806      7812      7809
      7808      7806      7812      7814      7811      7809      7812      7814
      7816      7821      7823      7825      7816      7821      7823      7826
      7816      7821      7829      7831      7816      7821      7829      7832
      7818      7816      7821      7823      7818      7816      7821      7829
      7819      7816      7821      7823      7819      7816      7821      7829
      7820      7816      7821      7823      7820      7816      7821      7829
      7821      7823      7826      7828      7821      7823      7826      7832
      7821      7829      7832      7826      7821      7829      7832      7834
      7823      7821      7829      7831      7823      7821      7829      7832
      7823      7826      7832      7829      7823      7826      7832      7834
      7825      7823      7821      7829      7825      7823      7826      7828
      7825      7823      7826      7832      7826      7823      7821      7829
      7826      7832      7829      7831      7828      7826      7832      7829
      7828      7826      7832      7834      7831      7829      7832      7834
      7836      7841      7843      7845      7836      7841      7843      7846
      7836      7841      7849      7851      7836      7841      7849      7852
      7838      7836      7841      7843      7838      7836      7841      7849
      7839      7836      7841      7843      7839      7836      7841      7849
      7840      7836      7841      7843      7840      7836      7841      7849
      7841      7843      7846      7848      7841      7843      7846      7852
      7841      7849      7852      7846      7841      7849      7852      7854
      7843      7841      7849      7851      7843      7841      7849      7852
      7843      7846      7852      7849      7843      7846      7852      7854
      7845      7843      7841      7849      7845      7843      7846      7848
      7845      7843      7846      7852      7846      7843      7841      7849
      7846      7852      7849      7851      7848      7846      7852      7849
      7848      7846      7852      7854      7851      7849      7852      7854
      7856      7861      7863      7865      7856      7861      7863      7866
      7856      7861      7869      7871      7856      7861      7869      7872
      7858      7856      7861      7863      7858      7856      7861      7869
      7859      7856      7861      7863      7859      7856      7861      7869
      7860      7856      7861      7863      7860      7856      7861      7869
      7861      7863      7866      7868      7861      7863      7866      7872
      7861      7869      7872      7866      7861      7869      7872      7874
      7863      7861      7869      7871      7863      7861      7869      7872
      7863      7866      7872      7869      7863      7866      7872      7874
      7865      7863      7861      7869      7865      7863      7866      7868
      7865      7863      7866      7872      7866      7863      7861      7869
      7866      7872      7869      7871      7868      7866      7872      7869
      7868      7866      7872      7874      7871      7869      7872      7874
      7876      7881      7883      7885      7876      7881      7883      7886
      7876      7881      7889      7891      7876      7881      7889      7892
      7878      7876      7881      7883      7878      7876      7881      7889
      7879      7876      7881      7883      7879      7876      7881      7889
      7880      7876      7881      7883      7880      7876      7881      7889
      7881      7883      7886      7888      7881      7883      7886      7892
      7881      7889      7892      7886      7881      7889      7892      7894
      7883      7881      7889      7891      7883      7881      7889      7892
      7883      7886      7892      7889      7883      7886      7892      7894
      7885      7883      7881      7889      7885      7883      7886      7888
      7885      7883      7886      7892      7886      7883      7881      7889
      7886      7892      7889      7891      7888      7886      7892      7889
      7888      7886      7892      7894      7891      7889      7892      7894
      7896      7901      7903      7905      7896      7901      7903      7906
      7896      7901      7909      7911      7896      7901      7909      7912
      7898      7896      7901      7903      7898      7896      7901      7909
      7899      7896      7901      7903      7899      7896      7901      7909
      7900      7896      7901      7903      7900      7896      7901      7909
      7901      7903      7906      7908      7901      7903      7906      7912
      7901      7909      7912      7906      7901      7909      7912      7914
      7903      7901      7909      7911      7903      7901      7909      7912
      7903      7906      7912      7909      7903      7906      7912      7914
      7905      7903      7901      7909      7905      7903      7906      7908
      7905      7903      7906      7912      7906      7903      7901      7909
      7906      7912      7909      7911      7908      7906      7912      7909
      7908      7906      7912      7914      7911      7909      7912      7914
      7916      7921      7923      7925      7916      7921      7923      7926
      7916      7921      7929      7931      7916      7921      7929      7932
      7918      7916      7921      7923      7918      7916      7921      7929
      7919      7916      7921      7923      7919      7916      7921      7929
      7920      7916      7921      7923      7920      7916      7921      7929
      7921      7923      7926      7928      7921      7923      7926      7932
      7921      7929      7932      7926      7921      7929      7932      7934
      7923      7921      7929      7931      7923      7921      7929      7932
      7923      7926      7932      7929      7923      7926      7932      7934
      7925      7923      7921      7929      7925      7923      7926      7928
      7925      7923      7926      7932      7926      7923      7921      7929
      7926      7932      7929      7931      7928      7926      7932      7929
      7928      7926      7932      7934      7931      7929      7932      7934
      7936      7941      7943      7945      7936      7941      7943      7946
      7936      7941      7949      7951      7936      7941      7949      7952
      7938      7936      7941      7943      7938      7936      7941      7949
      7939      7936      7941      7943      7939      7936      7941      7949
      7940      7936      7941      7943      7940      7936      7941      7949
      7941      7943      7946      7948      7941      7943      7946      7952
      7941      7949      7952      7946      7941      7949      7952      7954
      7943      7941      7949      7951      7943      7941      7949      7952
      7943      7946      7952      7949      7943      7946      7952      7954
      7945      7943      7941      7949      7945      7943      7946      7948
      7945      7943      7946      7952      7946      7943      7941      7949
      7946      7952      7949      7951      7948      7946      7952      7949
      7948      7946      7952      7954      7951      7949      7952      7954
      7956      7961      7963      7965      7956      7961      7963      7966
      7956      7961      7969      7971      7956      7961      7969      7972
      7958      7956      7961      7963      7958      7956      7961      7969
      7959      7956      7961      7963      7959      7956      7961      7969
      7960      7956      7961      7963      7960      7956      7961      7969
      7961      7963      7966      7968      7961      7963      7966      7972
      7961      7969      7972      7966      7961      7969      7972      7974
      7963      7961      7969      7971      7963      7961      7969      7972
      7963      7966      7972      7969      7963      7966      7972      7974
      7965      7963      7961      7969      7965      7963      7966      7968
      7965      7963      7966      7972      7966      7963      7961      7969
      7966      7972      7969      7971      7968      7966      7972      7969
      7968      7966      7972      7974      7971      7969      7972      7974
      7976      7981      7983      7985      7976      7981      7983      7986
      7976      7981      7989      7991      7976      7981      7989      7992
      7978      7976      7981      7983      7978      7976      7981      7989
      7979      7976      7981      7983      7979      7976      7981      7989
      7980      7976      7981      7983      7980      7976      7981      7989
      7981      7983      7986      7988      7981      7983      7986      7992
      7981      7989      7992      7986      7981      7989      7992      7994
      7983      7981      7989      7991      7983      7981      7989      7992
      7983      7986      7992      7989      7983      7986      7992      7994
      7985      7983      7981      7989      7985      7983      7986      7988
      7985      7983      7986      7992      7986      7983      7981      7989
      7986      7992      7989      7991      7988      7986      7992      7989
      7988      7986      7992      7994      7991      7989      7992      7994
      7996      8001      8003      8005      7996      8001      8003      8006
      7996      8001      8009      8011      7996      8001      8009      8012
      7998      7996      8001      8003      7998      7996      8001      8009
      7999      7996      8001      8003      7999      7996      8001      8009
      8000      7996      8001      8003      8000      7996      8001      8009
      8001      8003      8006      8008      8001      8003      8006      8012
      8001      8009      8012      8006      8001      8009      8012      8014
      8003      8001      8009      8011      8003      8001      8009      8012
      8003      8006      8012      8009      8003      8006      8012      8014
      8005      8003      8001      8009      8005      8003      8006      8008
      8005      8003      8006      8012      8006      8003      8001      8009
      8006      8012      8009      8011      8008      8006      8012      8009
      8008      8006      8012      8014      8011      8009      8012      8014
      8016      8021      8023      8025      8016      8021      8023      8026
      8016      8021      8029      8031      8016      8021      8029      8032
      8018      8016      8021      8023      8018      8016      8021      8029
      8019      8016      8021      8023      8019      8016      8021      8029
      8020      8016      8021      8023      8020      8016      8021      8029
      8021      8023      8026      8028      8021      8023      8026      8032
      8021      8029      8032      8026      8021      8029      8032      8034
      8023      8021      8029      8031      8023      8021      8029      8032
      8023      8026      8032      8029      8023      8026      8032      8034
      8025      8023      8021      8029      8025      8023      8026      8028
      8025      8023      8026      8032      8026      8023      8021      8029
      8026      8032      8029      8031      8028      8026      8032      8029
      8028      8026      8032      8034      8031      8029      8032      8034
      8036      8041      8043      8045      8036      8041      8043      8046
      8036      8041      8049      8051      8036      8041      8049      8052
      8038      8036      8041      8043      8038      8036      8041      8049
      8039      8036      8041      8043      8039      8036      8041      8049
      8040      8036      8041      8043      8040      8036      8041      8049
      8041      8043      8046      8048      8041      8043      8046      8052
      8041      8049      8052      8046      8041      8049      8052      8054
      8043      8041      8049      8051      8043      8041      8049      8052
      8043      8046      8052      8049      8043      8046      8052      8054
      8045      8043      8041      8049      8045      8043      8046      8048
      8045      8043      8046      8052      8046      8043      8041      8049
      8046      8052      8049      8051      8048      8046      8052      8049
      8048      8046      8052      8054      8051      8049      8052      8054
      8056      8061      8063      8065      8056      8061      8063      8066
      8056      8061      8069      8071      8056      8061      8069      8072
      8058      8056      8061      8063      8058      8056      8061      8069
      8059      8056      8061      8063      8059      8056      8061      8069
      8060      8056      8061      8063      8060      8056      8061      8069
      8061      8063      8066      8068      8061      8063      8066      8072
      8061      8069      8072      8066      8061      8069      8072      8074
      8063      8061      8069      8071      8063      8061      8069      8072
      8063      8066      8072      8069      8063      8066      8072      8074
      8065      8063      8061      8069      8065      8063      8066      8068
      8065      8063      8066      8072      8066      8063      8061      8069
      8066      8072      8069      8071      8068      8066      8072      8069
      8068      8066      8072      8074      8071      8069      8072      8074
      8076      8081      8083      8085      8076      8081      8083      8086
      8076      8081      8089      8091      8076      8081      8089      8092
      8078      8076      8081      8083      8078      8076      8081      8089
      8079      8076      8081      8083      8079      8076      8081      8089
      8080      8076      8081      8083      8080      8076      8081      8089
      8081      8083      8086      8088      8081      8083      8086      8092
      8081      8089      8092      8086      8081      8089      8092      8094
      8083      8081      8089      8091      8083      8081      8089      8092
      8083      8086      8092      8089      8083      8086      8092      8094
      8085      8083      8081      8089      8085      8083      8086      8088
      8085      8083      8086      8092      8086      8083      8081      8089
      8086      8092      8089      8091      8088      8086      8092      8089
      8088      8086      8092      8094      8091      8089      8092      8094
      8096      8101      8103      8105      8096      8101      8103      8106
      8096      8101      8109      8111      8096      8101      8109      8112
      8098      8096      8101      8103      8098      8096      8101      8109
      8099      8096      8101      8103      8099      8096      8101      8109
      8100      8096      8101      8103      8100      8096      8101      8109
      8101      8103      8106      8108      8101      8103      8106      8112
      8101      8109      8112      8106      8101      8109      8112      8114
      8103      8101      8109      8111      8103      8101      8109      8112
      8103      8106      8112      8109      8103      8106      8112      8114
      8105      8103      8101      8109      8105      8103      8106      8108
      8105      8103      8106      8112      8106      8103      8101      8109
      8106      8112      8109      8111      8108      8106      8112      8109
      8108      8106      8112      8114      8111      8109      8112      8114
      8116      8121      8123      8125      8116      8121      8123      8126
      8116      8121      8129      8131      8116      8121      8129      8132
      8118      8116      8121      8123      8118      8116      8121      8129
      8119      8116      8121      8123      8119      8116      8121      8129
      8120      8116      8121      8123      8120      8116      8121      8129
      8121      8123      8126      8128      8121      8123      8126      8132
      8121      8129      8132      8126      8121      8129      8132      8134
      8123      8121      8129      8131      8123      8121      8129      8132
      8123      8126      8132      8129      8123      8126      8132      8134
      8125      8123      8121      8129      8125      8123      8126      8128
      8125      8123      8126      8132      8126      8123      8121      8129
      8126      8132      8129      8131      8128      8126      8132      8129
      8128      8126      8132      8134      8131      8129      8132      8134
      8136      8141      8143      8145      8136      8141      8143      8146
      8136      8141      8149      8151      8136      8141      8149      8152
      8138      8136      8141      8143      8138      8136      8141      8149
      8139      8136      8141      8143      8139      8136      8141      8149
      8140      8136      8141      8143      8140      8136      8141      8149
      8141      8143      8146      8148      8141      8143      8146      8152
      8141      8149      8152      8146      8141      8149      8152      8154
      8143      8141      8149      8151      8143      8141      8149      8152
      8143      8146      8152      8149      8143      8146      8152      8154
      8145      8143      8141      8149      8145      8143      8146      8148
      8145      8143      8146      8152      8146      8143      8141      8149
      8146      8152      8149      8151      8148      8146      8152      8149
      8148      8146      8152      8154      8151      8149      8152      8154
      8156      8161      8163      8165      8156      8161      8163      8166
      8156      8161      8169      8171      8156      8161      8169      8172
      8158      8156      8161      8163      8158      8156      8161      8169
      8159      8156      8161      8163      8159      8156      8161      8169
      8160      8156      8161      8163      8160      8156      8161      8169
      8161      8163      8166      8168      8161      8163      8166      8172
      8161      8169      8172      8166      8161      8169      8172      8174
      8163      8161      8169      8171      8163      8161      8169      8172
      8163      8166      8172      8169      8163      8166      8172      8174
      8165      8163      8161      8169      8165      8163      8166      8168
      8165      8163      8166      8172      8166      8163      8161      8169
      8166      8172      8169      8171      8168      8166      8172      8169
      8168      8166      8172      8174      8171      8169      8172      8174
      8176      8181      8183      8185      8176      8181      8183      8186
      8176      8181      8189      8191      8176      8181      8189      8192
      8178      8176      8181      8183      8178      8176      8181      8189
      8179      8176      8181      8183      8179      8176      8181      8189
      8180      8176      8181      8183      8180      8176      8181      8189
      8181      8183      8186      8188      8181      8183      8186      8192
      8181      8189      8192      8186      8181      8189      8192      8194
      8183      8181      8189      8191      8183      8181      8189      8192
      8183      8186      8192      8189      8183      8186      8192      8194
      8185      8183      8181      8189      8185      8183      8186      8188
      8185      8183      8186      8192      8186      8183      8181      8189
      8186      8192      8189      8191      8188      8186      8192      8189
      8188      8186      8192      8194      8191      8189      8192      8194
      8196      8201      8203      8205      8196      8201      8203      8206
      8196      8201      8209      8211      8196      8201      8209      8212
      8198      8196      8201      8203      8198      8196      8201      8209
      8199      8196      8201      8203      8199      8196      8201      8209
      8200      8196      8201      8203      8200      8196      8201      8209
      8201      8203      8206      8208      8201      8203      8206      8212
      8201      8209      8212      8206      8201      8209      8212      8214
      8203      8201      8209      8211      8203      8201      8209      8212
      8203      8206      8212      8209      8203      8206      8212      8214
      8205      8203      8201      8209      8205      8203      8206      8208
      8205      8203      8206      8212      8206      8203      8201      8209
      8206      8212      8209      8211      8208      8206      8212      8209
      8208      8206      8212      8214      8211      8209      8212      8214
      8216      8221      8223      8225      8216      8221      8223      8226
      8216      8221      8229      8231      8216      8221      8229      8232
      8218      8216      8221      8223      8218      8216      8221      8229
      8219      8216      8221      8223      8219      8216      8221      8229
      8220      8216      8221      8223      8220      8216      8221      8229
      8221      8223      8226      8228      8221      8223      8226      8232
      8221      8229      8232      8226      8221      8229      8232      8234
      8223      8221      8229      8231      8223      8221      8229      8232
      8223      8226      8232      8229      8223      8226      8232      8234
      8225      8223      8221      8229      8225      8223      8226      8228
      8225      8223      8226      8232      8226      8223      8221      8229
      8226      8232      8229      8231      8228      8226      8232      8229
      8228      8226      8232      8234      8231      8229      8232      8234
      8236      8241      8243      8245      8236      8241      8243      8246
      8236      8241      8249      8251      8236      8241      8249      8252
      8238      8236      8241      8243      8238      8236      8241      8249
      8239      8236      8241      8243      8239      8236      8241      8249
      8240      8236      8241      8243      8240      8236      8241      8249
      8241      8243      8246      8248      8241      8243      8246      8252
      8241      8249      8252      8246      8241      8249      8252      8254
      8243      8241      8249      8251      8243      8241      8249      8252
      8243      8246      8252      8249      8243      8246      8252      8254
      8245      8243      8241      8249      8245      8243      8246      8248
      8245      8243      8246      8252      8246      8243      8241      8249
      8246      8252      8249      8251      8248      8246      8252      8249
      8248      8246      8252      8254      8251      8249      8252      8254
      8256      8261      8263      8265      8256      8261      8263      8266
      8256      8261      8269      8271      8256      8261      8269      8272
      8258      8256      8261      8263      8258      8256      8261      8269
      8259      8256      8261      8263      8259      8256      8261      8269
      8260      8256      8261      8263      8260      8256      8261      8269
      8261      8263      8266      8268      8261      8263      8266      8272
      8261      8269      8272      8266      8261      8269      8272      8274
      8263      8261      8269      8271      8263      8261      8269      8272
      8263      8266      8272      8269      8263      8266      8272      8274
      8265      8263      8261      8269      8265      8263      8266      8268
      8265      8263      8266      8272      8266      8263      8261      8269
      8266      8272      8269      8271      8268      8266      8272      8269
      8268      8266      8272      8274      8271      8269      8272      8274
      8276      8281      8283      8285      8276      8281      8283      8286
      8276      8281      8289      8291      8276      8281      8289      8292
      8278      8276      8281      8283      8278      8276      8281      8289
      8279      8276      8281      8283      8279      8276      8281      8289
      8280      8276      8281      8283      8280      8276      8281      8289
      8281      8283      8286      8288      8281      8283      8286      8292
      8281      8289      8292      8286      8281      8289      8292      8294
      8283      8281      8289      8291      8283      8281      8289      8292
      8283      8286      8292      8289      8283      8286      8292      8294
      8285      8283      8281      8289      8285      8283      8286      8288
      8285      8283      8286      8292      8286      8283      8281      8289
      8286      8292      8289      8291      8288      8286      8292      8289
      8288      8286      8292      8294      8291      8289      8292      8294
      8296      8301      8303      8305      8296      8301      8303      8306
      8296      8301      8309      8311      8296      8301      8309      8312
      8298      8296      8301      8303      8298      8296      8301      8309
      8299      8296      8301      8303      8299      8296      8301      8309
      8300      8296      8301      8303      8300      8296      8301      8309
      8301      8303      8306      8308      8301      8303      8306      8312
      8301      8309      8312      8306      8301      8309      8312      8314
      8303      8301      8309      8311      8303      8301      8309      8312
      8303      8306      8312      8309      8303      8306      8312      8314
      8305      8303      8301      8309      8305      8303      8306      8308
      8305      8303      8306      8312      8306      8303      8301      8309
      8306      8312      8309      8311      8308      8306      8312      8309
      8308      8306      8312      8314      8311      8309      8312      8314
      8316      8321      8323      8325      8316      8321      8323      8326
      8316      8321      8329      8331      8316      8321      8329      8332
      8318      8316      8321      8323      8318      8316      8321      8329
      8319      8316      8321      8323      8319      8316      8321      8329
      8320      8316      8321      8323      8320      8316      8321      8329
      8321      8323      8326      8328      8321      8323      8326      8332
      8321      8329      8332      8326      8321      8329      8332      8334
      8323      8321      8329      8331      8323      8321      8329      8332
      8323      8326      8332      8329      8323      8326      8332      8334
      8325      8323      8321      8329      8325      8323      8326      8328
      8325      8323      8326      8332      8326      8323      8321      8329
      8326      8332      8329      8331      8328      8326      8332      8329
      8328      8326      8332      8334      8331      8329      8332      8334
      8336      8341      8343      8345      8336      8341      8343      8346
      8336      8341      8349      8351      8336      8341      8349      8352
      8338      8336      8341      8343      8338      8336      8341      8349
      8339      8336      8341      8343      8339      8336      8341      8349
      8340      8336      8341      8343      8340      8336      8341      8349
      8341      8343      8346      8348      8341      8343      8346      8352
      8341      8349      8352      8346      8341      8349      8352      8354
      8343      8341      8349      8351      8343      8341      8349      8352
      8343      8346      8352      8349      8343      8346      8352      8354
      8345      8343      8341      8349      8345      8343      8346      8348
      8345      8343      8346      8352      8346      8343      8341      8349
      8346      8352      8349      8351      8348      8346      8352      8349
      8348      8346      8352      8354      8351      8349      8352      8354
      8356      8361      8363      8365      8356      8361      8363      8366
      8356      8361      8369      8371      8356      8361      8369      8372
      8358      8356      8361      8363      8358      8356      8361      8369
      8359      8356      8361      8363      8359      8356      8361      8369
      8360      8356      8361      8363      8360      8356      8361      8369
      8361      8363      8366      8368      8361      8363      8366      8372
      8361      8369      8372      8366      8361      8369      8372      8374
      8363      8361      8369      8371      8363      8361      8369      8372
      8363      8366      8372      8369      8363      8366      8372      8374
      8365      8363      8361      8369      8365      8363      8366      8368
      8365      8363      8366      8372      8366      8363      8361      8369
      8366      8372      8369      8371      8368      8366      8372      8369
      8368      8366      8372      8374      8371      8369      8372      8374
      8376      8381      8383      8385      8376      8381      8383      8386
      8376      8381      8389      8391      8376      8381      8389      8392
      8378      8376      8381      8383      8378      8376      8381      8389
      8379      8376      8381      8383      8379      8376      8381      8389
      8380      8376      8381      8383      8380      8376      8381      8389
      8381      8383      8386      8388      8381      8383      8386      8392
      8381      8389      8392      8386      8381      8389      8392      8394
      8383      8381      8389      8391      8383      8381      8389      8392
      8383      8386      8392      8389      8383      8386      8392      8394
      8385      8383      8381      8389      8385      8383      8386      8388
      8385      8383      8386      8392      8386      8383      8381      8389
      8386      8392      8389      8391      8388      8386      8392      8389
      8388      8386      8392      8394      8391      8389      8392      8394
      8396      8401      8403      8405      8396      8401      8403      8406
      8396      8401      8409      8411      8396      8401      8409      8412
      8398      8396      8401      8403      8398      8396      8401      8409
      8399      8396      8401      8403      8399      8396      8401      8409
      8400      8396      8401      8403      8400      8396      8401      8409
      8401      8403      8406      8408      8401      8403      8406      8412
      8401      8409      8412      8406      8401      8409      8412      8414
      8403      8401      8409      8411      8403      8401      8409      8412
      8403      8406      8412      8409      8403      8406      8412      8414
      8405      8403      8401      8409      8405      8403      8406      8408
      8405      8403      8406      8412      8406      8403      8401      8409
      8406      8412      8409      8411      8408      8406      8412      8409
      8408      8406      8412      8414      8411      8409      8412      8414
      8416      8421      8423      8425      8416      8421      8423      8426
      8416      8421      8429      8431      8416      8421      8429      8432
      8418      8416      8421      8423      8418      8416      8421      8429
      8419      8416      8421      8423      8419      8416      8421      8429
      8420      8416      8421      8423      8420      8416      8421      8429
      8421      8423      8426      8428      8421      8423      8426      8432
      8421      8429      8432      8426      8421      8429      8432      8434
      8423      8421      8429      8431      8423      8421      8429      8432
      8423      8426      8432      8429      8423      8426      8432      8434
      8425      8423      8421      8429      8425      8423      8426      8428
      8425      8423      8426      8432      8426      8423      8421      8429
      8426      8432      8429      8431      8428      8426      8432      8429
      8428      8426      8432      8434      8431      8429      8432      8434
      8436      8441      8443      8445      8436      8441      8443      8446
      8436      8441      8449      8451      8436      8441      8449      8452
      8438      8436      8441      8443      8438      8436      8441      8449
      8439      8436      8441      8443      8439      8436      8441      8449
      8440      8436      8441      8443      8440      8436      8441      8449
      8441      8443      8446      8448      8441      8443      8446      8452
      8441      8449      8452      8446      8441      8449      8452      8454
      8443      8441      8449      8451      8443      8441      8449      8452
      8443      8446      8452      8449      8443      8446      8452      8454
      8445      8443      8441      8449      8445      8443      8446      8448
      8445      8443      8446      8452      8446      8443      8441      8449
      8446      8452      8449      8451      8448      8446      8452      8449
      8448      8446      8452      8454      8451      8449      8452      8454
      8456      8461      8463      8465      8456      8461      8463      8466
      8456      8461      8469      8471      8456      8461      8469      8472
      8458      8456      8461      8463      8458      8456      8461      8469
      8459      8456      8461      8463      8459      8456      8461      8469
      8460      8456      8461      8463      8460      8456      8461      8469
      8461      8463      8466      8468      8461      8463      8466      8472
      8461      8469      8472      8466      8461      8469      8472      8474
      8463      8461      8469      8471      8463      8461      8469      8472
      8463      8466      8472      8469      8463      8466      8472      8474
      8465      8463      8461      8469      8465      8463      8466      8468
      8465      8463      8466      8472      8466      8463      8461      8469
      8466      8472      8469      8471      8468      8466      8472      8469
      8468      8466      8472      8474      8471      8469      8472      8474
      8476      8481      8483      8485      8476      8481      8483      8486
      8476      8481      8489      8491      8476      8481      8489      8492
      8478      8476      8481      8483      8478      8476      8481      8489
      8479      8476      8481      8483      8479      8476      8481      8489
      8480      8476      8481      8483      8480      8476      8481      8489
      8481      8483      8486      8488      8481      8483      8486      8492
      8481      8489      8492      8486      8481      8489      8492      8494
      8483      8481      8489      8491      8483      8481      8489      8492
      8483      8486      8492      8489      8483      8486      8492      8494
      8485      8483      8481      8489      8485      8483      8486      8488
      8485      8483      8486      8492      8486      8483      8481      8489
      8486      8492      8489      8491      8488      8486      8492      8489
      8488      8486      8492      8494      8491      8489      8492      8494
      8496      8501      8503      8505      8496      8501      8503      8506
      8496      8501      8509      8511      8496      8501      8509      8512
      8498      8496      8501      8503      8498      8496      8501      8509
      8499      8496      8501      8503      8499      8496      8501      8509
      8500      8496      8501      8503      8500      8496      8501      8509
      8501      8503      8506      8508      8501      8503      8506      8512
      8501      8509      8512      8506      8501      8509      8512      8514
      8503      8501      8509      8511      8503      8501      8509      8512
      8503      8506      8512      8509      8503      8506      8512      8514
      8505      8503      8501      8509      8505      8503      8506      8508
      8505      8503      8506      8512      8506      8503      8501      8509
      8506      8512      8509      8511      8508      8506      8512      8509
      8508      8506      8512      8514      8511      8509      8512      8514
      8516      8521      8523      8525      8516      8521      8523      8526
      8516      8521      8529      8531      8516      8521      8529      8532
      8518      8516      8521      8523      8518      8516      8521      8529
      8519      8516      8521      8523      8519      8516      8521      8529
      8520      8516      8521      8523      8520      8516      8521      8529
      8521      8523      8526      8528      8521      8523      8526      8532
      8521      8529      8532      8526      8521      8529      8532      8534
      8523      8521      8529      8531      8523      8521      8529      8532
      8523      8526      8532      8529      8523      8526      8532      8534
      8525      8523      8521      8529      8525      8523      8526      8528
      8525      8523      8526      8532      8526      8523      8521      8529
      8526      8532      8529      8531      8528      8526      8532      8529
      8528      8526      8532      8534      8531      8529      8532      8534
      8536      8541      8543      8545      8536      8541      8543      8546
      8536      8541      8549      8551      8536      8541      8549      8552
      8538      8536      8541      8543      8538      8536      8541      8549
      8539      8536      8541      8543      8539      8536      8541      8549
      8540      8536      8541      8543      8540      8536      8541      8549
      8541      8543      8546      8548      8541      8543      8546      8552
      8541      8549      8552      8546      8541      8549      8552      8554
      8543      8541      8549      8551      8543      8541      8549      8552
      8543      8546      8552      8549      8543      8546      8552      8554
      8545      8543      8541      8549      8545      8543      8546      8548
      8545      8543      8546      8552      8546      8543      8541      8549
      8546      8552      8549      8551      8548      8546      8552      8549
      8548      8546      8552      8554      8551      8549      8552      8554
      8556      8561      8563      8565      8556      8561      8563      8566
      8556      8561      8569      8571      8556      8561      8569      8572
      8558      8556      8561      8563      8558      8556      8561      8569
      8559      8556      8561      8563      8559      8556      8561      8569
      8560      8556      8561      8563      8560      8556      8561      8569
      8561      8563      8566      8568      8561      8563      8566      8572
      8561      8569      8572      8566      8561      8569      8572      8574
      8563      8561      8569      8571      8563      8561      8569      8572
      8563      8566      8572      8569      8563      8566      8572      8574
      8565      8563      8561      8569      8565      8563      8566      8568
      8565      8563      8566      8572      8566      8563      8561      8569
      8566      8572      8569      8571      8568      8566      8572      8569
      8568      8566      8572      8574      8571      8569      8572      8574
      8576      8581      8583      8585      8576      8581      8583      8586
      8576      8581      8589      8591      8576      8581      8589      8592
      8578      8576      8581      8583      8578      8576      8581      8589
      8579      8576      8581      8583      8579      8576      8581      8589
      8580      8576      8581      8583      8580      8576      8581      8589
      8581      8583      8586      8588      8581      8583      8586      8592
      8581      8589      8592      8586      8581      8589      8592      8594
      8583      8581      8589      8591      8583      8581      8589      8592
      8583      8586      8592      8589      8583      8586      8592      8594
      8585      8583      8581      8589      8585      8583      8586      8588
      8585      8583      8586      8592      8586      8583      8581      8589
      8586      8592      8589      8591      8588      8586      8592      8589
      8588      8586      8592      8594      8591      8589      8592      8594
      8596      8601      8603      8605      8596      8601      8603      8606
      8596      8601      8609      8611      8596      8601      8609      8612
      8598      8596      8601      8603      8598      8596      8601      8609
      8599      8596      8601      8603      8599      8596      8601      8609
      8600      8596      8601      8603      8600      8596      8601      8609
      8601      8603      8606      8608      8601      8603      8606      8612
      8601      8609      8612      8606      8601      8609      8612      8614
      8603      8601      8609      8611      8603      8601      8609      8612
      8603      8606      8612      8609      8603      8606      8612      8614
      8605      8603      8601      8609      8605      8603      8606      8608
      8605      8603      8606      8612      8606      8603      8601      8609
      8606      8612      8609      8611      8608      8606      8612      8609
      8608      8606      8612      8614      8611      8609      8612      8614
      8616      8621      8623      8625      8616      8621      8623      8626
      8616      8621      8629      8631      8616      8621      8629      8632
      8618      8616      8621      8623      8618      8616      8621      8629
      8619      8616      8621      8623      8619      8616      8621      8629
      8620      8616      8621      8623      8620      8616      8621      8629
      8621      8623      8626      8628      8621      8623      8626      8632
      8621      8629      8632      8626      8621      8629      8632      8634
      8623      8621      8629      8631      8623      8621      8629      8632
      8623      8626      8632      8629      8623      8626      8632      8634
      8625      8623      8621      8629      8625      8623      8626      8628
      8625      8623      8626      8632      8626      8623      8621      8629
      8626      8632      8629      8631      8628      8626      8632      8629
      8628      8626      8632      8634      8631      8629      8632      8634
      8636      8641      8643      8645      8636      8641      8643      8646
      8636      8641      8649      8651      8636      8641      8649      8652
      8638      8636      8641      8643      8638      8636      8641      8649
      8639      8636      8641      8643      8639      8636      8641      8649
      8640      8636      8641      8643      8640      8636      8641      8649
      8641      8643      8646      8648      8641      8643      8646      8652
      8641      8649      8652      8646      8641      8649      8652      8654
      8643      8641      8649      8651      8643      8641      8649      8652
      8643      8646      8652      8649      8643      8646      8652      8654
      8645      8643      8641      8649      8645      8643      8646      8648
      8645      8643      8646      8652      8646      8643      8641      8649
      8646      8652      8649      8651      8648      8646      8652      8649
      8648      8646      8652      8654      8651      8649      8652      8654
      8656      8661      8663      8665      8656      8661      8663      8666
      8656      8661      8669      8671      8656      8661      8669      8672
      8658      8656      8661      8663      8658      8656      8661      8669
      8659      8656      8661      8663      8659      8656      8661      8669
      8660      8656      8661      8663      8660      8656      8661      8669
      8661      8663      8666      8668      8661      8663      8666      8672
      8661      8669      8672      8666      8661      8669      8672      8674
      8663      8661      8669      8671      8663      8661      8669      8672
      8663      8666      8672      8669      8663      8666      8672      8674
      8665      8663      8661      8669      8665      8663      8666      8668
      8665      8663      8666      8672      8666      8663      8661      8669
      8666      8672      8669      8671      8668      8666      8672      8669
      8668      8666      8672      8674      8671      8669      8672      8674
      8676      8681      8683      8685      8676      8681      8683      8686
      8676      8681      8689      8691      8676      8681      8689      8692
      8678      8676      8681      8683      8678      8676      8681      8689
      8679      8676      8681      8683      8679      8676      8681      8689
      8680      8676      8681      8683      8680      8676      8681      8689
      8681      8683      8686      8688      8681      8683      8686      8692
      8681      8689      8692      8686      8681      8689      8692      8694
      8683      8681      8689      8691      8683      8681      8689      8692
      8683      8686      8692      8689      8683      8686      8692      8694
      8685      8683      8681      8689      8685      8683      8686      8688
      8685      8683      8686      8692      8686      8683      8681      8689
      8686      8692      8689      8691      8688      8686      8692      8689
      8688      8686      8692      8694      8691      8689      8692      8694
      8696      8701      8703      8705      8696      8701      8703      8706
      8696      8701      8709      8711      8696      8701      8709      8712
      8698      8696      8701      8703      8698      8696      8701      8709
      8699      8696      8701      8703      8699      8696      8701      8709
      8700      8696      8701      8703      8700      8696      8701      8709
      8701      8703      8706      8708      8701      8703      8706      8712
      8701      8709      8712      8706      8701      8709      8712      8714
      8703      8701      8709      8711      8703      8701      8709      8712
      8703      8706      8712      8709      8703      8706      8712      8714
      8705      8703      8701      8709      8705      8703      8706      8708
      8705      8703      8706      8712      8706      8703      8701      8709
      8706      8712      8709      8711      8708      8706      8712      8709
      8708      8706      8712      8714      8711      8709      8712      8714
      8716      8721      8723      8725      8716      8721      8723      8726
      8716      8721      8729      8731      8716      8721      8729      8732
      8718      8716      8721      8723      8718      8716      8721      8729
      8719      8716      8721      8723      8719      8716      8721      8729
      8720      8716      8721      8723      8720      8716      8721      8729
      8721      8723      8726      8728      8721      8723      8726      8732
      8721      8729      8732      8726      8721      8729      8732      8734
      8723      8721      8729      8731      8723      8721      8729      8732
      8723      8726      8732      8729      8723      8726      8732      8734
      8725      8723      8721      8729      8725      8723      8726      8728
      8725      8723      8726      8732      8726      8723      8721      8729
      8726      8732      8729      8731      8728      8726      8732      8729
      8728      8726      8732      8734      8731      8729      8732      8734
      8736      8741      8743      8745      8736      8741      8743      8746
      8736      8741      8749      8751      8736      8741      8749      8752
      8738      8736      8741      8743      8738      8736      8741      8749
      8739      8736      8741      8743      8739      8736      8741      8749
      8740      8736      8741      8743      8740      8736      8741      8749
      8741      8743      8746      8748      8741      8743      8746      8752
      8741      8749      8752      8746      8741      8749      8752      8754
      8743      8741      8749      8751      8743      8741      8749      8752
      8743      8746      8752      8749      8743      8746      8752      8754
      8745      8743      8741      8749      8745      8743      8746      8748
      8745      8743      8746      8752      8746      8743      8741      8749
      8746      8752      8749      8751      8748      8746      8752      8749
      8748      8746      8752      8754      8751      8749      8752      8754
      8756      8761      8763      8765      8756      8761      8763      8766
      8756      8761      8769      8771      8756      8761      8769      8772
      8758      8756      8761      8763      8758      8756      8761      8769
      8759      8756      8761      8763      8759      8756      8761      8769
      8760      8756      8761      8763      8760      8756      8761      8769
      8761      8763      8766      8768      8761      8763      8766      8772
      8761      8769      8772      8766      8761      8769      8772      8774
      8763      8761      8769      8771      8763      8761      8769      8772
      8763      8766      8772      8769      8763      8766      8772      8774
      8765      8763      8761      8769      8765      8763      8766      8768
      8765      8763      8766      8772      8766      8763      8761      8769
      8766      8772      8769      8771      8768      8766      8772      8769
      8768      8766      8772      8774      8771      8769      8772      8774
      8776      8781      8783      8785      8776      8781      8783      8786
      8776      8781      8789      8791      8776      8781      8789      8792
      8778      8776      8781      8783      8778      8776      8781      8789
      8779      8776      8781      8783      8779      8776      8781      8789
      8780      8776      8781      8783      8780      8776      8781      8789
      8781      8783      8786      8788      8781      8783      8786      8792
      8781      8789      8792      8786      8781      8789      8792      8794
      8783      8781      8789      8791      8783      8781      8789      8792
      8783      8786      8792      8789      8783      8786      8792      8794
      8785      8783      8781      8789      8785      8783      8786      8788
      8785      8783      8786      8792      8786      8783      8781      8789
      8786      8792      8789      8791      8788      8786      8792      8789
      8788      8786      8792      8794      8791      8789      8792      8794
      8796      8801      8803      8805      8796      8801      8803      8806
      8796      8801      8809      8811      8796      8801      8809      8812
      8798      8796      8801      8803      8798      8796      8801      8809
      8799      8796      8801      8803      8799      8796      8801      8809
      8800      8796      8801      8803      8800      8796      8801      8809
      8801      8803      8806      8808      8801      8803      8806      8812
      8801      8809      8812      8806      8801      8809      8812      8814
      8803      8801      8809      8811      8803      8801      8809      8812
      8803      8806      8812      8809      8803      8806      8812      8814
      8805      8803      8801      8809      8805      8803      8806      8808
      8805      8803      8806      8812      8806      8803      8801      8809
      8806      8812      8809      8811      8808      8806      8812      8809
      8808      8806      8812      8814      8811      8809      8812      8814
      8816      8821      8823      8825      8816      8821      8823      8826
      8816      8821      8829      8831      8816      8821      8829      8832
      8818      8816      8821      8823      8818      8816      8821      8829
      8819      8816      8821      8823      8819      8816      8821      8829
      8820      8816      8821      8823      8820      8816      8821      8829
      8821      8823      8826      8828      8821      8823      8826      8832
      8821      8829      8832      8826      8821      8829      8832      8834
      8823      8821      8829      8831      8823      8821      8829      8832
      8823      8826      8832      8829      8823      8826      8832      8834
      8825      8823      8821      8829      8825      8823      8826      8828
      8825      8823      8826      8832      8826      8823      8821      8829
      8826      8832      8829      8831      8828      8826      8832      8829
      8828      8826      8832      8834      8831      8829      8832      8834
      8836      8841      8843      8845      8836      8841      8843      8846
      8836      8841      8849      8851      8836      8841      8849      8852
      8838      8836      8841      8843      8838      8836      8841      8849
      8839      8836      8841      8843      8839      8836      8841      8849
      8840      8836      8841      8843      8840      8836      8841      8849
      8841      8843      8846      8848      8841      8843      8846      8852
      8841      8849      8852      8846      8841      8849      8852      8854
      8843      8841      8849      8851      8843      8841      8849      8852
      8843      8846      8852      8849      8843      8846      8852      8854
      8845      8843      8841      8849      8845      8843      8846      8848
      8845      8843      8846      8852      8846      8843      8841      8849
      8846      8852      8849      8851      8848      8846      8852      8849
      8848      8846      8852      8854      8851      8849      8852      8854
      8856      8861      8863      8865      8856      8861      8863      8866
      8856      8861      8869      8871      8856      8861      8869      8872
      8858      8856      8861      8863      8858      8856      8861      8869
      8859      8856      8861      8863      8859      8856      8861      8869
      8860      8856      8861      8863      8860      8856      8861      8869
      8861      8863      8866      8868      8861      8863      8866      8872
      8861      8869      8872      8866      8861      8869      8872      8874
      8863      8861      8869      8871      8863      8861      8869      8872
      8863      8866      8872      8869      8863      8866      8872      8874
      8865      8863      8861      8869      8865      8863      8866      8868
      8865      8863      8866      8872      8866      8863      8861      8869
      8866      8872      8869      8871      8868      8866      8872      8869
      8868      8866      8872      8874      8871      8869      8872      8874
      8876      8881      8883      8885      8876      8881      8883      8886
      8876      8881      8889      8891      8876      8881      8889      8892
      8878      8876      8881      8883      8878      8876      8881      8889
      8879      8876      8881      8883      8879      8876      8881      8889
      8880      8876      8881      8883      8880      8876      8881      8889
      8881      8883      8886      8888      8881      8883      8886      8892
      8881      8889      8892      8886      8881      8889      8892      8894
      8883      8881      8889      8891      8883      8881      8889      8892
      8883      8886      8892      8889      8883      8886      8892      8894
      8885      8883      8881      8889      8885      8883      8886      8888
      8885      8883      8886      8892      8886      8883      8881      8889
      8886      8892      8889      8891      8888      8886      8892      8889
      8888      8886      8892      8894      8891      8889      8892      8894
      8896      8901      8903      8905      8896      8901      8903      8906
      8896      8901      8909      8911      8896      8901      8909      8912
      8898      8896      8901      8903      8898      8896      8901      8909
      8899      8896      8901      8903      8899      8896      8901      8909
      8900      8896      8901      8903      8900      8896      8901      8909
      8901      8903      8906      8908      8901      8903      8906      8912
      8901      8909      8912      8906      8901      8909      8912      8914
      8903      8901      8909      8911      8903      8901      8909      8912
      8903      8906      8912      8909      8903      8906      8912      8914
      8905      8903      8901      8909      8905      8903      8906      8908
      8905      8903      8906      8912      8906      8903      8901      8909
      8906      8912      8909      8911      8908      8906      8912      8909
      8908      8906      8912      8914      8911      8909      8912      8914
      8916      8921      8923      8925      8916      8921      8923      8926
      8916      8921      8929      8931      8916      8921      8929      8932
      8918      8916      8921      8923      8918      8916      8921      8929
      8919      8916      8921      8923      8919      8916      8921      8929
      8920      8916      8921      8923      8920      8916      8921      8929
      8921      8923      8926      8928      8921      8923      8926      8932
      8921      8929      8932      8926      8921      8929      8932      8934
      8923      8921      8929      8931      8923      8921      8929      8932
      8923      8926      8932      8929      8923      8926      8932      8934
      8925      8923      8921      8929      8925      8923      8926      8928
      8925      8923      8926      8932      8926      8923      8921      8929
      8926      8932      8929      8931      8928      8926      8932      8929
      8928      8926      8932      8934      8931      8929      8932      8934
      8936      8941      8943      8945      8936      8941      8943      8946
      8936      8941      8949      8951      8936      8941      8949      8952
      8938      8936      8941      8943      8938      8936      8941      8949
      8939      8936      8941      8943      8939      8936      8941      8949
      8940      8936      8941      8943      8940      8936      8941      8949
      8941      8943      8946      8948      8941      8943      8946      8952
      8941      8949      8952      8946      8941      8949      8952      8954
      8943      8941      8949      8951      8943      8941      8949      8952
      8943      8946      8952      8949      8943      8946      8952      8954
      8945      8943      8941      8949      8945      8943      8946      8948
      8945      8943      8946      8952      8946      8943      8941      8949
      8946      8952      8949      8951      8948      8946      8952      8949
      8948      8946      8952      8954      8951      8949      8952      8954
      8956      8961      8963      8965      8956      8961      8963      8966
      8956      8961      8969      8971      8956      8961      8969      8972
      8958      8956      8961      8963      8958      8956      8961      8969
      8959      8956      8961      8963      8959      8956      8961      8969
      8960      8956      8961      8963      8960      8956      8961      8969
      8961      8963      8966      8968      8961      8963      8966      8972
      8961      8969      8972      8966      8961      8969      8972      8974
      8963      8961      8969      8971      8963      8961      8969      8972
      8963      8966      8972      8969      8963      8966      8972      8974
      8965      8963      8961      8969      8965      8963      8966      8968
      8965      8963      8966      8972      8966      8963      8961      8969
      8966      8972      8969      8971      8968      8966      8972      8969
      8968      8966      8972      8974      8971      8969      8972      8974
      8976      8981      8983      8985      8976      8981      8983      8986
      8976      8981      8989      8991      8976      8981      8989      8992
      8978      8976      8981      8983      8978      8976      8981      8989
      8979      8976      8981      8983      8979      8976      8981      8989
      8980      8976      8981      8983      8980      8976      8981      8989
      8981      8983      8986      8988      8981      8983      8986      8992
      8981      8989      8992      8986      8981      8989      8992      8994
      8983      8981      8989      8991      8983      8981      8989      8992
      8983      8986      8992      8989      8983      8986      8992      8994
      8985      8983      8981      8989      8985      8983      8986      8988
      8985      8983      8986      8992      8986      8983      8981      8989
      8986      8992      8989      8991      8988      8986      8992      8989
      8988      8986      8992      8994      8991      8989      8992      8994
      8996      9001      9003      9005      8996      9001      9003      9006
      8996      9001      9009      9011      8996      9001      9009      9012
      8998      8996      9001      9003      8998      8996      9001      9009
      8999      8996      9001      9003      8999      8996      9001      9009
      9000      8996      9001      9003      9000      8996      9001      9009
      9001      9003      9006      9008      9001      9003      9006      9012
      9001      9009      9012      9006      9001      9009      9012      9014
      9003      9001      9009      9011      9003      9001      9009      9012
      9003      9006      9012      9009      9003      9006      9012      9014
      9005      9003      9001      9009      9005      9003      9006      9008
      9005      9003      9006      9012      9006      9003      9001      9009
      9006      9012      9009      9011      9008      9006      9012      9009
      9008      9006      9012      9014      9011      9009      9012      9014
      9016      9021      9023      9025      9016      9021      9023      9026
      9016      9021      9029      9031      9016      9021      9029      9032
      9018      9016      9021      9023      9018      9016      9021      9029
      9019      9016      9021      9023      9019      9016      9021      9029
      9020      9016      9021      9023      9020      9016      9021      9029
      9021      9023      9026      9028      9021      9023      9026      9032
      9021      9029      9032      9026      9021      9029      9032      9034
      9023      9021      9029      9031      9023      9021      9029      9032
      9023      9026      9032      9029      9023      9026      9032      9034
      9025      9023      9021      9029      9025      9023      9026      9028
      9025      9023      9026      9032      9026      9023      9021      9029
      9026      9032      9029      9031      9028      9026      9032      9029
      9028      9026      9032      9034      9031      9029      9032      9034
      9036      9041      9043      9045      9036      9041      9043      9046
      9036      9041      9049      9051      9036      9041      9049      9052
      9038      9036      9041      9043      9038      9036      9041      9049
      9039      9036      9041      9043      9039      9036      9041      9049
      9040      9036      9041      9043      9040      9036      9041      9049
      9041      9043      9046      9048      9041      9043      9046      9052
      9041      9049      9052      9046      9041      9049      9052      9054
      9043      9041      9049      9051      9043      9041      9049      9052
      9043      9046      9052      9049      9043      9046      9052      9054
      9045      9043      9041      9049      9045      9043      9046      9048
      9045      9043      9046      9052      9046      9043      9041      9049
      9046      9052      9049      9051      9048      9046      9052      9049
      9048      9046      9052      9054      9051      9049      9052      9054
      9056      9061      9063      9065      9056      9061      9063      9066
      9056      9061      9069      9071      9056      9061      9069      9072
      9058      9056      9061      9063      9058      9056      9061      9069
      9059      9056      9061      9063      9059      9056      9061      9069
      9060      9056      9061      9063      9060      9056      9061      9069
      9061      9063      9066      9068      9061      9063      9066      9072
      9061      9069      9072      9066      9061      9069      9072      9074
      9063      9061      9069      9071      9063      9061      9069      9072
      9063      9066      9072      9069      9063      9066      9072      9074
      9065      9063      9061      9069      9065      9063      9066      9068
      9065      9063      9066      9072      9066      9063      9061      9069
      9066      9072      9069      9071      9068      9066      9072      9069
      9068      9066      9072      9074      9071      9069      9072      9074
      9076      9081      9083      9085      9076      9081      9083      9086
      9076      9081      9089      9091      9076      9081      9089      9092
      9078      9076      9081      9083      9078      9076      9081      9089
      9079      9076      9081      9083      9079      9076      9081      9089
      9080      9076      9081      9083      9080      9076      9081      9089
      9081      9083      9086      9088      9081      9083      9086      9092
      9081      9089      9092      9086      9081      9089      9092      9094
      9083      9081      9089      9091      9083      9081      9089      9092
      9083      9086      9092      9089      9083      9086      9092      9094
      9085      9083      9081      9089      9085      9083      9086      9088
      9085      9083      9086      9092      9086      9083      9081      9089
      9086      9092      9089      9091      9088      9086      9092      9089
      9088      9086      9092      9094      9091      9089      9092      9094
      9096      9101      9103      9105      9096      9101      9103      9106
      9096      9101      9109      9111      9096      9101      9109      9112
      9098      9096      9101      9103      9098      9096      9101      9109
      9099      9096      9101      9103      9099      9096      9101      9109
      9100      9096      9101      9103      9100      9096      9101      9109
      9101      9103      9106      9108      9101      9103      9106      9112
      9101      9109      9112      9106      9101      9109      9112      9114
      9103      9101      9109      9111      9103      9101      9109      9112
      9103      9106      9112      9109      9103      9106      9112      9114
      9105      9103      9101      9109      9105      9103      9106      9108
      9105      9103      9106      9112      9106      9103      9101      9109
      9106      9112      9109      9111      9108      9106      9112      9109
      9108      9106      9112      9114      9111      9109      9112      9114
      9116      9121      9123      9125      9116      9121      9123      9126
      9116      9121      9129      9131      9116      9121      9129      9132
      9118      9116      9121      9123      9118      9116      9121      9129
      9119      9116      9121      9123      9119      9116      9121      9129
      9120      9116      9121      9123      9120      9116      9121      9129
      9121      9123      9126      9128      9121      9123      9126      9132
      9121      9129      9132      9126      9121      9129      9132      9134
      9123      9121      9129      9131      9123      9121      9129      9132
      9123      9126      9132      9129      9123      9126      9132      9134
      9125      9123      9121      9129      9125      9123      9126      9128
      9125      9123      9126      9132      9126      9123      9121      9129
      9126      9132      9129      9131      9128      9126      9132      9129
      9128      9126      9132      9134      9131      9129      9132      9134
      9136      9141      9143      9145      9136      9141      9143      9146
      9136      9141      9149      9151      9136      9141      9149      9152
      9138      9136      9141      9143      9138      9136      9141      9149
      9139      9136      9141      9143      9139      9136      9141      9149
      9140      9136      9141      9143      9140      9136      9141      9149
      9141      9143      9146      9148      9141      9143      9146      9152
      9141      9149      9152      9146      9141      9149      9152      9154
      9143      9141      9149      9151      9143      9141      9149      9152
      9143      9146      9152      9149      9143      9146      9152      9154
      9145      9143      9141      9149      9145      9143      9146      9148
      9145      9143      9146      9152      9146      9143      9141      9149
      9146      9152      9149      9151      9148      9146      9152      9149
      9148      9146      9152      9154      9151      9149      9152      9154
      9156      9161      9163      9165      9156      9161      9163      9166
      9156      9161      9169      9171      9156      9161      9169      9172
      9158      9156      9161      9163      9158      9156      9161      9169
      9159      9156      9161      9163      9159      9156      9161      9169
      9160      9156      9161      9163      9160      9156      9161      9169
      9161      9163      9166      9168      9161      9163      9166      9172
      9161      9169      9172      9166      9161      9169      9172      9174
      9163      9161      9169      9171      9163      9161      9169      9172
      9163      9166      9172      9169      9163      9166      9172      9174
      9165      9163      9161      9169      9165      9163      9166      9168
      9165      9163      9166      9172      9166      9163      9161      9169
      9166      9172      9169      9171      9168      9166      9172      9169
      9168      9166      9172      9174      9171      9169      9172      9174
      9176      9181      9183      9185      9176      9181      9183      9186
      9176      9181      9189      9191      9176      9181      9189      9192
      9178      9176      9181      9183      9178      9176      9181      9189
      9179      9176      9181      9183      9179      9176      9181      9189
      9180      9176      9181      9183      9180      9176      9181      9189
      9181      9183      9186      9188      9181      9183      9186      9192
      9181      9189      9192      9186      9181      9189      9192      9194
      9183      9181      9189      9191      9183      9181      9189      9192
      9183      9186      9192      9189      9183      9186      9192      9194
      9185      9183      9181      9189      9185      9183      9186      9188
      9185      9183      9186      9192      9186      9183      9181      9189
      9186      9192      9189      9191      9188      9186      9192      9189
      9188      9186      9192      9194      9191      9189      9192      9194
      9196      9201      9203      9205      9196      9201      9203      9206
      9196      9201      9209      9211      9196      9201      9209      9212
      9198      9196      9201      9203      9198      9196      9201      9209
      9199      9196      9201      9203      9199      9196      9201      9209
      9200      9196      9201      9203      9200      9196      9201      9209
      9201      9203      9206      9208      9201      9203      9206      9212
      9201      9209      9212      9206      9201      9209      9212      9214
      9203      9201      9209      9211      9203      9201      9209      9212
      9203      9206      9212      9209      9203      9206      9212      9214
      9205      9203      9201      9209      9205      9203      9206      9208
      9205      9203      9206      9212      9206      9203      9201      9209
      9206      9212      9209      9211      9208      9206      9212      9209
      9208      9206      9212      9214      9211      9209      9212      9214
      9216      9221      9223      9225      9216      9221      9223      9226
      9216      9221      9229      9231      9216      9221      9229      9232
      9218      9216      9221      9223      9218      9216      9221      9229
      9219      9216      9221      9223      9219      9216      9221      9229
      9220      9216      9221      9223      9220      9216      9221      9229
      9221      9223      9226      9228      9221      9223      9226      9232
      9221      9229      9232      9226      9221      9229      9232      9234
      9223      9221      9229      9231      9223      9221      9229      9232
      9223      9226      9232      9229      9223      9226      9232      9234
      9225      9223      9221      9229      9225      9223      9226      9228
      9225      9223      9226      9232      9226      9223      9221      9229
      9226      9232      9229      9231      9228      9226      9232      9229
      9228      9226      9232      9234      9231      9229      9232      9234
      9236      9241      9243      9245      9236      9241      9243      9246
      9236      9241      9249      9251      9236      9241      9249      9252
      9238      9236      9241      9243      9238      9236      9241      9249
      9239      9236      9241      9243      9239      9236      9241      9249
      9240      9236      9241      9243      9240      9236      9241      9249
      9241      9243      9246      9248      9241      9243      9246      9252
      9241      9249      9252      9246      9241      9249      9252      9254
      9243      9241      9249      9251      9243      9241      9249      9252
      9243      9246      9252      9249      9243      9246      9252      9254
      9245      9243      9241      9249      9245      9243      9246      9248
      9245      9243      9246      9252      9246      9243      9241      9249
      9246      9252      9249      9251      9248      9246      9252      9249
      9248      9246      9252      9254      9251      9249      9252      9254
      9256      9261      9263      9265      9256      9261      9263      9266
      9256      9261      9269      9271      9256      9261      9269      9272
      9258      9256      9261      9263      9258      9256      9261      9269
      9259      9256      9261      9263      9259      9256      9261      9269
      9260      9256      9261      9263      9260      9256      9261      9269
      9261      9263      9266      9268      9261      9263      9266      9272
      9261      9269      9272      9266      9261      9269      9272      9274
      9263      9261      9269      9271      9263      9261      9269      9272
      9263      9266      9272      9269      9263      9266      9272      9274
      9265      9263      9261      9269      9265      9263      9266      9268
      9265      9263      9266      9272      9266      9263      9261      9269
      9266      9272      9269      9271      9268      9266      9272      9269
      9268      9266      9272      9274      9271      9269      9272      9274
      9276      9281      9283      9285      9276      9281      9283      9286
      9276      9281      9289      9291      9276      9281      9289      9292
      9278      9276      9281      9283      9278      9276      9281      9289
      9279      9276      9281      9283      9279      9276      9281      9289
      9280      9276      9281      9283      9280      9276      9281      9289
      9281      9283      9286      9288      9281      9283      9286      9292
      9281      9289      9292      9286      9281      9289      9292      9294
      9283      9281      9289      9291      9283      9281      9289      9292
      9283      9286      9292      9289      9283      9286      9292      9294
      9285      9283      9281      9289      9285      9283      9286      9288
      9285      9283      9286      9292      9286      9283      9281      9289
      9286      9292      9289      9291      9288      9286      9292      9289
      9288      9286      9292      9294      9291      9289      9292      9294
      9296      9301      9303      9305      9296      9301      9303      9306
      9296      9301      9309      9311      9296      9301      9309      9312
      9298      9296      9301      9303      9298      9296      9301      9309
      9299      9296      9301      9303      9299      9296      9301      9309
      9300      9296      9301      9303      9300      9296      9301      9309
      9301      9303      9306      9308      9301      9303      9306      9312
      9301      9309      9312      9306      9301      9309      9312      9314
      9303      9301      9309      9311      9303      9301      9309      9312
      9303      9306      9312      9309      9303      9306      9312      9314
      9305      9303      9301      9309      9305      9303      9306      9308
      9305      9303      9306      9312      9306      9303      9301      9309
      9306      9312      9309      9311      9308      9306      9312      9309
      9308      9306      9312      9314      9311      9309      9312      9314
      9316      9321      9323      9325      9316      9321      9323      9326
      9316      9321      9329      9331      9316      9321      9329      9332
      9318      9316      9321      9323      9318      9316      9321      9329
      9319      9316      9321      9323      9319      9316      9321      9329
      9320      9316      9321      9323      9320      9316      9321      9329
      9321      9323      9326      9328      9321      9323      9326      9332
      9321      9329      9332      9326      9321      9329      9332      9334
      9323      9321      9329      9331      9323      9321      9329      9332
      9323      9326      9332      9329      9323      9326      9332      9334
      9325      9323      9321      9329      9325      9323      9326      9328
      9325      9323      9326      9332      9326      9323      9321      9329
      9326      9332      9329      9331      9328      9326      9332      9329
      9328      9326      9332      9334      9331      9329      9332      9334
      9336      9341      9343      9345      9336      9341      9343      9346
      9336      9341      9349      9351      9336      9341      9349      9352
      9338      9336      9341      9343      9338      9336      9341      9349
      9339      9336      9341      9343      9339      9336      9341      9349
      9340      9336      9341      9343      9340      9336      9341      9349
      9341      9343      9346      9348      9341      9343      9346      9352
      9341      9349      9352      9346      9341      9349      9352      9354
      9343      9341      9349      9351      9343      9341      9349      9352
      9343      9346      9352      9349      9343      9346      9352      9354
      9345      9343      9341      9349      9345      9343      9346      9348
      9345      9343      9346      9352      9346      9343      9341      9349
      9346      9352      9349      9351      9348      9346      9352      9349
      9348      9346      9352      9354      9351      9349      9352      9354
      9356      9361      9363      9365      9356      9361      9363      9366
      9356      9361      9369      9371      9356      9361      9369      9372
      9358      9356      9361      9363      9358      9356      9361      9369
      9359      9356      9361      9363      9359      9356      9361      9369
      9360      9356      9361      9363      9360      9356      9361      9369
      9361      9363      9366      9368      9361      9363      9366      9372
      9361      9369      9372      9366      9361      9369      9372      9374
      9363      9361      9369      9371      9363      9361      9369      9372
      9363      9366      9372      9369      9363      9366      9372      9374
      9365      9363      9361      9369      9365      9363      9366      9368
      9365      9363      9366      9372      9366      9363      9361      9369
      9366      9372      9369      9371      9368      9366      9372      9369
      9368      9366      9372      9374      9371      9369      9372      9374
      9376      9381      9383      9385      9376      9381      9383      9386
      9376      9381      9389      9391      9376      9381      9389      9392
      9378      9376      9381      9383      9378      9376      9381      9389
      9379      9376      9381      9383      9379      9376      9381      9389
      9380      9376      9381      9383      9380      9376      9381      9389
      9381      9383      9386      9388      9381      9383      9386      9392
      9381      9389      9392      9386      9381      9389      9392      9394
      9383      9381      9389      9391      9383      9381      9389      9392
      9383      9386      9392      9389      9383      9386      9392      9394
      9385      9383      9381      9389      9385      9383      9386      9388
      9385      9383      9386      9392      9386      9383      9381      9389
      9386      9392      9389      9391      9388      9386      9392      9389
      9388      9386      9392      9394      9391      9389      9392      9394
      9396      9401      9403      9405      9396      9401      9403      9406
      9396      9401      9409      9411      9396      9401      9409      9412
      9398      9396      9401      9403      9398      9396      9401      9409
      9399      9396      9401      9403      9399      9396      9401      9409
      9400      9396      9401      9403      9400      9396      9401      9409
      9401      9403      9406      9408      9401      9403      9406      9412
      9401      9409      9412      9406      9401      9409      9412      9414
      9403      9401      9409      9411      9403      9401      9409      9412
      9403      9406      9412      9409      9403      9406      9412      9414
      9405      9403      9401      9409      9405      9403      9406      9408
      9405      9403      9406      9412      9406      9403      9401      9409
      9406      9412      9409      9411      9408      9406      9412      9409
      9408      9406      9412      9414      9411      9409      9412      9414
      9416      9421      9423      9425      9416      9421      9423      9426
      9416      9421      9429      9431      9416      9421      9429      9432
      9418      9416      9421      9423      9418      9416      9421      9429
      9419      9416      9421      9423      9419      9416      9421      9429
      9420      9416      9421      9423      9420      9416      9421      9429
      9421      9423      9426      9428      9421      9423      9426      9432
      9421      9429      9432      9426      9421      9429      9432      9434
      9423      9421      9429      9431      9423      9421      9429      9432
      9423      9426      9432      9429      9423      9426      9432      9434
      9425      9423      9421      9429      9425      9423      9426      9428
      9425      9423      9426      9432      9426      9423      9421      9429
      9426      9432      9429      9431      9428      9426      9432      9429
      9428      9426      9432      9434      9431      9429      9432      9434
      9436      9441      9443      9445      9436      9441      9443      9446
      9436      9441      9449      9451      9436      9441      9449      9452
      9438      9436      9441      9443      9438      9436      9441      9449
      9439      9436      9441      9443      9439      9436      9441      9449
      9440      9436      9441      9443      9440      9436      9441      9449
      9441      9443      9446      9448      9441      9443      9446      9452
      9441      9449      9452      9446      9441      9449      9452      9454
      9443      9441      9449      9451      9443      9441      9449      9452
      9443      9446      9452      9449      9443      9446      9452      9454
      9445      9443      9441      9449      9445      9443      9446      9448
      9445      9443      9446      9452      9446      9443      9441      9449
      9446      9452      9449      9451      9448      9446      9452      9449
      9448      9446      9452      9454      9451      9449      9452      9454
      9456      9461      9463      9465      9456      9461      9463      9466
      9456      9461      9469      9471      9456      9461      9469      9472
      9458      9456      9461      9463      9458      9456      9461      9469
      9459      9456      9461      9463      9459      9456      9461      9469
      9460      9456      9461      9463      9460      9456      9461      9469
      9461      9463      9466      9468      9461      9463      9466      9472
      9461      9469      9472      9466      9461      9469      9472      9474
      9463      9461      9469      9471      9463      9461      9469      9472
      9463      9466      9472      9469      9463      9466      9472      9474
      9465      9463      9461      9469      9465      9463      9466      9468
      9465      9463      9466      9472      9466      9463      9461      9469
      9466      9472      9469      9471      9468      9466      9472      9469
      9468      9466      9472      9474      9471      9469      9472      9474
      9476      9481      9483      9485      9476      9481      9483      9486
      9476      9481      9489      9491      9476      9481      9489      9492
      9478      9476      9481      9483      9478      9476      9481      9489
      9479      9476      9481      9483      9479      9476      9481      9489
      9480      9476      9481      9483      9480      9476      9481      9489
      9481      9483      9486      9488      9481      9483      9486      9492
      9481      9489      9492      9486      9481      9489      9492      9494
      9483      9481      9489      9491      9483      9481      9489      9492
      9483      9486      9492      9489      9483      9486      9492      9494
      9485      9483      9481      9489      9485      9483      9486      9488
      9485      9483      9486      9492      9486      9483      9481      9489
      9486      9492      9489      9491      9488      9486      9492      9489
      9488      9486      9492      9494      9491      9489      9492      9494
      9496      9501      9503      9505      9496      9501      9503      9506
      9496      9501      9509      9511      9496      9501      9509      9512
      9498      9496      9501      9503      9498      9496      9501      9509
      9499      9496      9501      9503      9499      9496      9501      9509
      9500      9496      9501      9503      9500      9496      9501      9509
      9501      9503      9506      9508      9501      9503      9506      9512
      9501      9509      9512      9506      9501      9509      9512      9514
      9503      9501      9509      9511      9503      9501      9509      9512
      9503      9506      9512      9509      9503      9506      9512      9514
      9505      9503      9501      9509      9505      9503      9506      9508
      9505      9503      9506      9512      9506      9503      9501      9509
      9506      9512      9509      9511      9508      9506      9512      9509
      9508      9506      9512      9514      9511      9509      9512      9514
      9516      9521      9523      9525      9516      9521      9523      9526
      9516      9521      9529      9531      9516      9521      9529      9532
      9518      9516      9521      9523      9518      9516      9521      9529
      9519      9516      9521      9523      9519      9516      9521      9529
      9520      9516      9521      9523      9520      9516      9521      9529
      9521      9523      9526      9528      9521      9523      9526      9532
      9521      9529      9532      9526      9521      9529      9532      9534
      9523      9521      9529      9531      9523      9521      9529      9532
      9523      9526      9532      9529      9523      9526      9532      9534
      9525      9523      9521      9529      9525      9523      9526      9528
      9525      9523      9526      9532      9526      9523      9521      9529
      9526      9532      9529      9531      9528      9526      9532      9529
      9528      9526      9532      9534      9531      9529      9532      9534
      9536      9541      9543      9545      9536      9541      9543      9546
      9536      9541      9549      9551      9536      9541      9549      9552
      9538      9536      9541      9543      9538      9536      9541      9549
      9539      9536      9541      9543      9539      9536      9541      9549
      9540      9536      9541      9543      9540      9536      9541      9549
      9541      9543      9546      9548      9541      9543      9546      9552
      9541      9549      9552      9546      9541      9549      9552      9554
      9543      9541      9549      9551      9543      9541      9549      9552
      9543      9546      9552      9549      9543      9546      9552      9554
      9545      9543      9541      9549      9545      9543      9546      9548
      9545      9543      9546      9552      9546      9543      9541      9549
      9546      9552      9549      9551      9548      9546      9552      9549
      9548      9546      9552      9554      9551      9549      9552      9554
      9556      9561      9563      9565      9556      9561      9563      9566
      9556      9561      9569      9571      9556      9561      9569      9572
      9558      9556      9561      9563      9558      9556      9561      9569
      9559      9556      9561      9563      9559      9556      9561      9569
      9560      9556      9561      9563      9560      9556      9561      9569
      9561      9563      9566      9568      9561      9563      9566      9572
      9561      9569      9572      9566      9561      9569      9572      9574
      9563      9561      9569      9571      9563      9561      9569      9572
      9563      9566      9572      9569      9563      9566      9572      9574
      9565      9563      9561      9569      9565      9563      9566      9568
      9565      9563      9566      9572      9566      9563      9561      9569
      9566      9572      9569      9571      9568      9566      9572      9569
      9568      9566      9572      9574      9571      9569      9572      9574
      9576      9581      9583      9585      9576      9581      9583      9586
      9576      9581      9589      9591      9576      9581      9589      9592
      9578      9576      9581      9583      9578      9576      9581      9589
      9579      9576      9581      9583      9579      9576      9581      9589
      9580      9576      9581      9583      9580      9576      9581      9589
      9581      9583      9586      9588      9581      9583      9586      9592
      9581      9589      9592      9586      9581      9589      9592      9594
      9583      9581      9589      9591      9583      9581      9589      9592
      9583      9586      9592      9589      9583      9586      9592      9594
      9585      9583      9581      9589      9585      9583      9586      9588
      9585      9583      9586      9592      9586      9583      9581      9589
      9586      9592      9589      9591      9588      9586      9592      9589
      9588      9586      9592      9594      9591      9589      9592      9594
      9596      9601      9603      9605      9596      9601      9603      9606
      9596      9601      9609      9611      9596      9601      9609      9612
      9598      9596      9601      9603      9598      9596      9601      9609
      9599      9596      9601      9603      9599      9596      9601      9609
      9600      9596      9601      9603      9600      9596      9601      9609
      9601      9603      9606      9608      9601      9603      9606      9612
      9601      9609      9612      9606      9601      9609      9612      9614
      9603      9601      9609      9611      9603      9601      9609      9612
      9603      9606      9612      9609      9603      9606      9612      9614
      9605      9603      9601      9609      9605      9603      9606      9608
      9605      9603      9606      9612      9606      9603      9601      9609
      9606      9612      9609      9611      9608      9606      9612      9609
      9608      9606      9612      9614      9611      9609      9612      9614
      9616      9621      9623      9625      9616      9621      9623      9626
      9616      9621      9629      9631      9616      9621      9629      9632
      9618      9616      9621      9623      9618      9616      9621      9629
      9619      9616      9621      9623      9619      9616      9621      9629
      9620      9616      9621      9623      9620      9616      9621      9629
      9621      9623      9626      9628      9621      9623      9626      9632
      9621      9629      9632      9626      9621      9629      9632      9634
      9623      9621      9629      9631      9623      9621      9629      9632
      9623      9626      9632      9629      9623      9626      9632      9634
      9625      9623      9621      9629      9625      9623      9626      9628
      9625      9623      9626      9632      9626      9623      9621      9629
      9626      9632      9629      9631      9628      9626      9632      9629
      9628      9626      9632      9634      9631      9629      9632      9634
      9636      9641      9643      9645      9636      9641      9643      9646
      9636      9641      9649      9651      9636      9641      9649      9652
      9638      9636      9641      9643      9638      9636      9641      9649
      9639      9636      9641      9643      9639      9636      9641      9649
      9640      9636      9641      9643      9640      9636      9641      9649
      9641      9643      9646      9648      9641      9643      9646      9652
      9641      9649      9652      9646      9641      9649      9652      9654
      9643      9641      9649      9651      9643      9641      9649      9652
      9643      9646      9652      9649      9643      9646      9652      9654
      9645      9643      9641      9649      9645      9643      9646      9648
      9645      9643      9646      9652      9646      9643      9641      9649
      9646      9652      9649      9651      9648      9646      9652      9649
      9648      9646      9652      9654      9651      9649      9652      9654
      9656      9661      9663      9665      9656      9661      9663      9666
      9656      9661      9669      9671      9656      9661      9669      9672
      9658      9656      9661      9663      9658      9656      9661      9669
      9659      9656      9661      9663      9659      9656      9661      9669
      9660      9656      9661      9663      9660      9656      9661      9669
      9661      9663      9666      9668      9661      9663      9666      9672
      9661      9669      9672      9666      9661      9669      9672      9674
      9663      9661      9669      9671      9663      9661      9669      9672
      9663      9666      9672      9669      9663      9666      9672      9674
      9665      9663      9661      9669      9665      9663      9666      9668
      9665      9663      9666      9672      9666      9663      9661      9669
      9666      9672      9669      9671      9668      9666      9672      9669
      9668      9666      9672      9674      9671      9669      9672      9674
      9676      9681      9683      9685      9676      9681      9683      9686
      9676      9681      9689      9691      9676      9681      9689      9692
      9678      9676      9681      9683      9678      9676      9681      9689
      9679      9676      9681      9683      9679      9676      9681      9689
      9680      9676      9681      9683      9680      9676      9681      9689
      9681      9683      9686      9688      9681      9683      9686      9692
      9681      9689      9692      9686      9681      9689      9692      9694
      9683      9681      9689      9691      9683      9681      9689      9692
      9683      9686      9692      9689      9683      9686      9692      9694
      9685      9683      9681      9689      9685      9683      9686      9688
      9685      9683      9686      9692      9686      9683      9681      9689
      9686      9692      9689      9691      9688      9686      9692      9689
      9688      9686      9692      9694      9691      9689      9692      9694
      9696      9701      9703      9705      9696      9701      9703      9706
      9696      9701      9709      9711      9696      9701      9709      9712
      9698      9696      9701      9703      9698      9696      9701      9709
      9699      9696      9701      9703      9699      9696      9701      9709
      9700      9696      9701      9703      9700      9696      9701      9709
      9701      9703      9706      9708      9701      9703      9706      9712
      9701      9709      9712      9706      9701      9709      9712      9714
      9703      9701      9709      9711      9703      9701      9709      9712
      9703      9706      9712      9709      9703      9706      9712      9714
      9705      9703      9701      9709      9705      9703      9706      9708
      9705      9703      9706      9712      9706      9703      9701      9709
      9706      9712      9709      9711      9708      9706      9712      9709
      9708      9706      9712      9714      9711      9709      9712      9714
      9716      9721      9723      9725      9716      9721      9723      9726
      9716      9721      9729      9731      9716      9721      9729      9732
      9718      9716      9721      9723      9718      9716      9721      9729
      9719      9716      9721      9723      9719      9716      9721      9729
      9720      9716      9721      9723      9720      9716      9721      9729
      9721      9723      9726      9728      9721      9723      9726      9732
      9721      9729      9732      9726      9721      9729      9732      9734
      9723      9721      9729      9731      9723      9721      9729      9732
      9723      9726      9732      9729      9723      9726      9732      9734
      9725      9723      9721      9729      9725      9723      9726      9728
      9725      9723      9726      9732      9726      9723      9721      9729
      9726      9732      9729      9731      9728      9726      9732      9729
      9728      9726      9732      9734      9731      9729      9732      9734
      9736      9741      9743      9745      9736      9741      9743      9746
      9736      9741      9749      9751      9736      9741      9749      9752
      9738      9736      9741      9743      9738      9736      9741      9749
      9739      9736      9741      9743      9739      9736      9741      9749
      9740      9736      9741      9743      9740      9736      9741      9749
      9741      9743      9746      9748      9741      9743      9746      9752
      9741      9749      9752      9746      9741      9749      9752      9754
      9743      9741      9749      9751      9743      9741      9749      9752
      9743      9746      9752      9749      9743      9746      9752      9754
      9745      9743      9741      9749      9745      9743      9746      9748
      9745      9743      9746      9752      9746      9743      9741      9749
      9746      9752      9749      9751      9748      9746      9752      9749
      9748      9746      9752      9754      9751      9749      9752      9754
      9756      9761      9763      9765      9756      9761      9763      9766
      9756      9761      9769      9771      9756      9761      9769      9772
      9758      9756      9761      9763      9758      9756      9761      9769
      9759      9756      9761      9763      9759      9756      9761      9769
      9760      9756      9761      9763      9760      9756      9761      9769
      9761      9763      9766      9768      9761      9763      9766      9772
      9761      9769      9772      9766      9761      9769      9772      9774
      9763      9761      9769      9771      9763      9761      9769      9772
      9763      9766      9772      9769      9763      9766      9772      9774
      9765      9763      9761      9769      9765      9763      9766      9768
      9765      9763      9766      9772      9766      9763      9761      9769
      9766      9772      9769      9771      9768      9766      9772      9769
      9768      9766      9772      9774      9771      9769      9772      9774
      9776      9781      9783      9785      9776      9781      9783      9786
      9776      9781      9789      9791      9776      9781      9789      9792
      9778      9776      9781      9783      9778      9776      9781      9789
      9779      9776      9781      9783      9779      9776      9781      9789
      9780      9776      9781      9783      9780      9776      9781      9789
      9781      9783      9786      9788      9781      9783      9786      9792
      9781      9789      9792      9786      9781      9789      9792      9794
      9783      9781      9789      9791      9783      9781      9789      9792
      9783      9786      9792      9789      9783      9786      9792      9794
      9785      9783      9781      9789      9785      9783      9786      9788
      9785      9783      9786      9792      9786      9783      9781      9789
      9786      9792      9789      9791      9788      9786      9792      9789
      9788      9786      9792      9794      9791      9789      9792      9794
      9796      9801      9803      9805      9796      9801      9803      9806
      9796      9801      9809      9811      9796      9801      9809      9812
      9798      9796      9801      9803      9798      9796      9801      9809
      9799      9796      9801      9803      9799      9796      9801      9809
      9800      9796      9801      9803      9800      9796      9801      9809
      9801      9803      9806      9808      9801      9803      9806      9812
      9801      9809      9812      9806      9801      9809      9812      9814
      9803      9801      9809      9811      9803      9801      9809      9812
      9803      9806      9812      9809      9803      9806      9812      9814
      9805      9803      9801      9809      9805      9803      9806      9808
      9805      9803      9806      9812      9806      9803      9801      9809
      9806      9812      9809      9811      9808      9806      9812      9809
      9808      9806      9812      9814      9811      9809      9812      9814
      9816      9821      9823      9825      9816      9821      9823      9826
      9816      9821      9829      9831      9816      9821      9829      9832
      9818      9816      9821      9823      9818      9816      9821      9829
      9819      9816      9821      9823      9819      9816      9821      9829
      9820      9816      9821      9823      9820      9816      9821      9829
      9821      9823      9826      9828      9821      9823      9826      9832
      9821      9829      9832      9826      9821      9829      9832      9834
      9823      9821      9829      9831      9823      9821      9829      9832
      9823      9826      9832      9829      9823      9826      9832      9834
      9825      9823      9821      9829      9825      9823      9826      9828
      9825      9823      9826      9832      9826      9823      9821      9829
      9826      9832      9829      9831      9828      9826      9832      9829
      9828      9826      9832      9834      9831      9829      9832      9834
      9836      9841      9843      9845      9836      9841      9843      9846
      9836      9841      9849      9851      9836      9841      9849      9852
      9838      9836      9841      9843      9838      9836      9841      9849
      9839      9836      9841      9843      9839      9836      9841      9849
      9840      9836      9841      9843      9840      9836      9841      9849
      9841      9843      9846      9848      9841      9843      9846      9852
      9841      9849      9852      9846      9841      9849      9852      9854
      9843      9841      9849      9851      9843      9841      9849      9852
      9843      9846      9852      9849      9843      9846      9852      9854
      9845      9843      9841      9849      9845      9843      9846      9848
      9845      9843      9846      9852      9846      9843      9841      9849
      9846      9852      9849      9851      9848      9846      9852      9849
      9848      9846      9852      9854      9851      9849      9852      9854
      9856      9861      9863      9865      9856      9861      9863      9866
      9856      9861      9869      9871      9856      9861      9869      9872
      9858      9856      9861      9863      9858      9856      9861      9869
      9859      9856      9861      9863      9859      9856      9861      9869
      9860      9856      9861      9863      9860      9856      9861      9869
      9861      9863      9866      9868      9861      9863      9866      9872
      9861      9869      9872      9866      9861      9869      9872      9874
      9863      9861      9869      9871      9863      9861      9869      9872
      9863      9866      9872      9869      9863      9866      9872      9874
      9865      9863      9861      9869      9865      9863      9866      9868
      9865      9863      9866      9872      9866      9863      9861      9869
      9866      9872      9869      9871      9868      9866      9872      9869
      9868      9866      9872      9874      9871      9869      9872      9874
      9876      9881      9883      9885      9876      9881      9883      9886
      9876      9881      9889      9891      9876      9881      9889      9892
      9878      9876      9881      9883      9878      9876      9881      9889
      9879      9876      9881      9883      9879      9876      9881      9889
      9880      9876      9881      9883      9880      9876      9881      9889
      9881      9883      9886      9888      9881      9883      9886      9892
      9881      9889      9892      9886      9881      9889      9892      9894
      9883      9881      9889      9891      9883      9881      9889      9892
      9883      9886      9892      9889      9883      9886      9892      9894
      9885      9883      9881      9889      9885      9883      9886      9888
      9885      9883      9886      9892      9886      9883      9881      9889
      9886      9892      9889      9891      9888      9886      9892      9889
      9888      9886      9892      9894      9891      9889      9892      9894
      9896      9901      9903      9905      9896      9901      9903      9906
      9896      9901      9909      9911      9896      9901      9909      9912
      9898      9896      9901      9903      9898      9896      9901      9909
      9899      9896      9901      9903      9899      9896      9901      9909
      9900      9896      9901      9903      9900      9896      9901      9909
      9901      9903      9906      9908      9901      9903      9906      9912
      9901      9909      9912      9906      9901      9909      9912      9914
      9903      9901      9909      9911      9903      9901      9909      9912
      9903      9906      9912      9909      9903      9906      9912      9914
      9905      9903      9901      9909      9905      9903      9906      9908
      9905      9903      9906      9912      9906      9903      9901      9909
      9906      9912      9909      9911      9908      9906      9912      9909
      9908      9906      9912      9914      9911      9909      9912      9914
      9916      9921      9923      9925      9916      9921      9923      9926
      9916      9921      9929      9931      9916      9921      9929      9932
      9918      9916      9921      9923      9918      9916      9921      9929
      9919      9916      9921      9923      9919      9916      9921      9929
      9920      9916      9921      9923      9920      9916      9921      9929
      9921      9923      9926      9928      9921      9923      9926      9932
      9921      9929      9932      9926      9921      9929      9932      9934
      9923      9921      9929      9931      9923      9921      9929      9932
      9923      9926      9932      9929      9923      9926      9932      9934
      9925      9923      9921      9929      9925      9923      9926      9928
      9925      9923      9926      9932      9926      9923      9921      9929
      9926      9932      9929      9931      9928      9926      9932      9929
      9928      9926      9932      9934      9931      9929      9932      9934
      9936      9941      9943      9945      9936      9941      9943      9946
      9936      9941      9949      9951      9936      9941      9949      9952
      9938      9936      9941      9943      9938      9936      9941      9949
      9939      9936      9941      9943      9939      9936      9941      9949
      9940      9936      9941      9943      9940      9936      9941      9949
      9941      9943      9946      9948      9941      9943      9946      9952
      9941      9949      9952      9946      9941      9949      9952      9954
      9943      9941      9949      9951      9943      9941      9949      9952
      9943      9946      9952      9949      9943      9946      9952      9954
      9945      9943      9941      9949      9945      9943      9946      9948
      9945      9943      9946      9952      9946      9943      9941      9949
      9946      9952      9949      9951      9948      9946      9952      9949
      9948      9946      9952      9954      9951      9949      9952      9954
      9956      9961      9963      9965      9956      9961      9963      9966
      9956      9961      9969      9971      9956      9961      9969      9972
      9958      9956      9961      9963      9958      9956      9961      9969
      9959      9956      9961      9963      9959      9956      9961      9969
      9960      9956      9961      9963      9960      9956      9961      9969
      9961      9963      9966      9968      9961      9963      9966      9972
      9961      9969      9972      9966      9961      9969      9972      9974
      9963      9961      9969      9971      9963      9961      9969      9972
      9963      9966      9972      9969      9963      9966      9972      9974
      9965      9963      9961      9969      9965      9963      9966      9968
      9965      9963      9966      9972      9966      9963      9961      9969
      9966      9972      9969      9971      9968      9966      9972      9969
      9968      9966      9972      9974      9971      9969      9972      9974
      9976      9981      9983      9985      9976      9981      9983      9986
      9976      9981      9989      9991      9976      9981      9989      9992
      9978      9976      9981      9983      9978      9976      9981      9989
      9979      9976      9981      9983      9979      9976      9981      9989
      9980      9976      9981      9983      9980      9976      9981      9989
      9981      9983      9986      9988      9981      9983      9986      9992
      9981      9989      9992      9986      9981      9989      9992      9994
      9983      9981      9989      9991      9983      9981      9989      9992
      9983      9986      9992      9989      9983      9986      9992      9994
      9985      9983      9981      9989      9985      9983      9986      9988
      9985      9983      9986      9992      9986      9983      9981      9989
      9986      9992      9989      9991      9988      9986      9992      9989
      9988      9986      9992      9994      9991      9989      9992      9994
      9996     10001     10003     10005      9996     10001     10003     10006
      9996     10001     10009     10011      9996     10001     10009     10012
      9998      9996     10001     10003      9998      9996     10001     10009
      9999      9996     10001     10003      9999      9996     10001     10009
     10000      9996     10001     10003     10000      9996     10001     10009
     10001     10003     10006     10008     10001     10003     10006     10012
     10001     10009     10012     10006     10001     10009     10012     10014
     10003     10001     10009     10011     10003     10001     10009     10012
     10003     10006     10012     10009     10003     10006     10012     10014
     10005     10003     10001     10009     10005     10003     10006     10008
     10005     10003     10006     10012     10006     10003     10001     10009
     10006     10012     10009     10011     10008     10006     10012     10009
     10008     10006     10012     10014     10011     10009     10012     10014
     10016     10021     10023     10025     10016     10021     10023     10026
     10016     10021     10029     10031     10016     10021     10029     10032
     10018     10016     10021     10023     10018     10016     10021     10029
     10019     10016     10021     10023     10019     10016     10021     10029
     10020     10016     10021     10023     10020     10016     10021     10029
     10021     10023     10026     10028     10021     10023     10026     10032
     10021     10029     10032     10026     10021     10029     10032     10034
     10023     10021     10029     10031     10023     10021     10029     10032
     10023     10026     10032     10029     10023     10026     10032     10034
     10025     10023     10021     10029     10025     10023     10026     10028
     10025     10023     10026     10032     10026     10023     10021     10029
     10026     10032     10029     10031     10028     10026     10032     10029
     10028     10026     10032     10034     10031     10029     10032     10034
     10036     10041     10043     10045     10036     10041     10043     10046
     10036     10041     10049     10051     10036     10041     10049     10052
     10038     10036     10041     10043     10038     10036     10041     10049
     10039     10036     10041     10043     10039     10036     10041     10049
     10040     10036     10041     10043     10040     10036     10041     10049
     10041     10043     10046     10048     10041     10043     10046     10052
     10041     10049     10052     10046     10041     10049     10052     10054
     10043     10041     10049     10051     10043     10041     10049     10052
     10043     10046     10052     10049     10043     10046     10052     10054
     10045     10043     10041     10049     10045     10043     10046     10048
     10045     10043     10046     10052     10046     10043     10041     10049
     10046     10052     10049     10051     10048     10046     10052     10049
     10048     10046     10052     10054     10051     10049     10052     10054
     10056     10061     10063     10065     10056     10061     10063     10066
     10056     10061     10069     10071     10056     10061     10069     10072
     10058     10056     10061     10063     10058     10056     10061     10069
     10059     10056     10061     10063     10059     10056     10061     10069
     10060     10056     10061     10063     10060     10056     10061     10069
     10061     10063     10066     10068     10061     10063     10066     10072
     10061     10069     10072     10066     10061     10069     10072     10074
     10063     10061     10069     10071     10063     10061     10069     10072
     10063     10066     10072     10069     10063     10066     10072     10074
     10065     10063     10061     10069     10065     10063     10066     10068
     10065     10063     10066     10072     10066     10063     10061     10069
     10066     10072     10069     10071     10068     10066     10072     10069
     10068     10066     10072     10074     10071     10069     10072     10074
     10076     10081     10083     10085     10076     10081     10083     10086
     10076     10081     10089     10091     10076     10081     10089     10092
     10078     10076     10081     10083     10078     10076     10081     10089
     10079     10076     10081     10083     10079     10076     10081     10089
     10080     10076     10081     10083     10080     10076     10081     10089
     10081     10083     10086     10088     10081     10083     10086     10092
     10081     10089     10092     10086     10081     10089     10092     10094
     10083     10081     10089     10091     10083     10081     10089     10092
     10083     10086     10092     10089     10083     10086     10092     10094
     10085     10083     10081     10089     10085     10083     10086     10088
     10085     10083     10086     10092     10086     10083     10081     10089
     10086     10092     10089     10091     10088     10086     10092     10089
     10088     10086     10092     10094     10091     10089     10092     10094
     10096     10101     10103     10105     10096     10101     10103     10106
     10096     10101     10109     10111     10096     10101     10109     10112
     10098     10096     10101     10103     10098     10096     10101     10109
     10099     10096     10101     10103     10099     10096     10101     10109
     10100     10096     10101     10103     10100     10096     10101     10109
     10101     10103     10106     10108     10101     10103     10106     10112
     10101     10109     10112     10106     10101     10109     10112     10114
     10103     10101     10109     10111     10103     10101     10109     10112
     10103     10106     10112     10109     10103     10106     10112     10114
     10105     10103     10101     10109     10105     10103     10106     10108
     10105     10103     10106     10112     10106     10103     10101     10109
     10106     10112     10109     10111     10108     10106     10112     10109
     10108     10106     10112     10114     10111     10109     10112     10114
     10116     10121     10123     10125     10116     10121     10123     10126
     10116     10121     10129     10131     10116     10121     10129     10132
     10118     10116     10121     10123     10118     10116     10121     10129
     10119     10116     10121     10123     10119     10116     10121     10129
     10120     10116     10121     10123     10120     10116     10121     10129
     10121     10123     10126     10128     10121     10123     10126     10132
     10121     10129     10132     10126     10121     10129     10132     10134
     10123     10121     10129     10131     10123     10121     10129     10132
     10123     10126     10132     10129     10123     10126     10132     10134
     10125     10123     10121     10129     10125     10123     10126     10128
     10125     10123     10126     10132     10126     10123     10121     10129
     10126     10132     10129     10131     10128     10126     10132     10129
     10128     10126     10132     10134     10131     10129     10132     10134
     10136     10141     10143     10145     10136     10141     10143     10146
     10136     10141     10149     10151     10136     10141     10149     10152
     10138     10136     10141     10143     10138     10136     10141     10149
     10139     10136     10141     10143     10139     10136     10141     10149
     10140     10136     10141     10143     10140     10136     10141     10149
     10141     10143     10146     10148     10141     10143     10146     10152
     10141     10149     10152     10146     10141     10149     10152     10154
     10143     10141     10149     10151     10143     10141     10149     10152
     10143     10146     10152     10149     10143     10146     10152     10154
     10145     10143     10141     10149     10145     10143     10146     10148
     10145     10143     10146     10152     10146     10143     10141     10149
     10146     10152     10149     10151     10148     10146     10152     10149
     10148     10146     10152     10154     10151     10149     10152     10154
     10156     10161     10163     10165     10156     10161     10163     10166
     10156     10161     10169     10171     10156     10161     10169     10172
     10158     10156     10161     10163     10158     10156     10161     10169
     10159     10156     10161     10163     10159     10156     10161     10169
     10160     10156     10161     10163     10160     10156     10161     10169
     10161     10163     10166     10168     10161     10163     10166     10172
     10161     10169     10172     10166     10161     10169     10172     10174
     10163     10161     10169     10171     10163     10161     10169     10172
     10163     10166     10172     10169     10163     10166     10172     10174
     10165     10163     10161     10169     10165     10163     10166     10168
     10165     10163     10166     10172     10166     10163     10161     10169
     10166     10172     10169     10171     10168     10166     10172     10169
     10168     10166     10172     10174     10171     10169     10172     10174
     10176     10181     10183     10185     10176     10181     10183     10186
     10176     10181     10189     10191     10176     10181     10189     10192
     10178     10176     10181     10183     10178     10176     10181     10189
     10179     10176     10181     10183     10179     10176     10181     10189
     10180     10176     10181     10183     10180     10176     10181     10189
     10181     10183     10186     10188     10181     10183     10186     10192
     10181     10189     10192     10186     10181     10189     10192     10194
     10183     10181     10189     10191     10183     10181     10189     10192
     10183     10186     10192     10189     10183     10186     10192     10194
     10185     10183     10181     10189     10185     10183     10186     10188
     10185     10183     10186     10192     10186     10183     10181     10189
     10186     10192     10189     10191     10188     10186     10192     10189
     10188     10186     10192     10194     10191     10189     10192     10194
     10196     10201     10203     10205     10196     10201     10203     10206
     10196     10201     10209     10211     10196     10201     10209     10212
     10198     10196     10201     10203     10198     10196     10201     10209
     10199     10196     10201     10203     10199     10196     10201     10209
     10200     10196     10201     10203     10200     10196     10201     10209
     10201     10203     10206     10208     10201     10203     10206     10212
     10201     10209     10212     10206     10201     10209     10212     10214
     10203     10201     10209     10211     10203     10201     10209     10212
     10203     10206     10212     10209     10203     10206     10212     10214
     10205     10203     10201     10209     10205     10203     10206     10208
     10205     10203     10206     10212     10206     10203     10201     10209
     10206     10212     10209     10211     10208     10206     10212     10209
     10208     10206     10212     10214     10211     10209     10212     10214
     10216     10221     10223     10225     10216     10221     10223     10226
     10216     10221     10229     10231     10216     10221     10229     10232
     10218     10216     10221     10223     10218     10216     10221     10229
     10219     10216     10221     10223     10219     10216     10221     10229
     10220     10216     10221     10223     10220     10216     10221     10229
     10221     10223     10226     10228     10221     10223     10226     10232
     10221     10229     10232     10226     10221     10229     10232     10234
     10223     10221     10229     10231     10223     10221     10229     10232
     10223     10226     10232     10229     10223     10226     10232     10234
     10225     10223     10221     10229     10225     10223     10226     10228
     10225     10223     10226     10232     10226     10223     10221     10229
     10226     10232     10229     10231     10228     10226     10232     10229
     10228     10226     10232     10234     10231     10229     10232     10234
     10236     10241     10243     10245     10236     10241     10243     10246
     10236     10241     10249     10251     10236     10241     10249     10252
     10238     10236     10241     10243     10238     10236     10241     10249
     10239     10236     10241     10243     10239     10236     10241     10249
     10240     10236     10241     10243     10240     10236     10241     10249
     10241     10243     10246     10248     10241     10243     10246     10252
     10241     10249     10252     10246     10241     10249     10252     10254
     10243     10241     10249     10251     10243     10241     10249     10252
     10243     10246     10252     10249     10243     10246     10252     10254
     10245     10243     10241     10249     10245     10243     10246     10248
     10245     10243     10246     10252     10246     10243     10241     10249
     10246     10252     10249     10251     10248     10246     10252     10249
     10248     10246     10252     10254     10251     10249     10252     10254
     10256     10261     10263     10265     10256     10261     10263     10266
     10256     10261     10269     10271     10256     10261     10269     10272
     10258     10256     10261     10263     10258     10256     10261     10269
     10259     10256     10261     10263     10259     10256     10261     10269
     10260     10256     10261     10263     10260     10256     10261     10269
     10261     10263     10266     10268     10261     10263     10266     10272
     10261     10269     10272     10266     10261     10269     10272     10274
     10263     10261     10269     10271     10263     10261     10269     10272
     10263     10266     10272     10269     10263     10266     10272     10274
     10265     10263     10261     10269     10265     10263     10266     10268
     10265     10263     10266     10272     10266     10263     10261     10269
     10266     10272     10269     10271     10268     10266     10272     10269
     10268     10266     10272     10274     10271     10269     10272     10274
     10276     10281     10283     10285     10276     10281     10283     10286
     10276     10281     10289     10291     10276     10281     10289     10292
     10278     10276     10281     10283     10278     10276     10281     10289
     10279     10276     10281     10283     10279     10276     10281     10289
     10280     10276     10281     10283     10280     10276     10281     10289
     10281     10283     10286     10288     10281     10283     10286     10292
     10281     10289     10292     10286     10281     10289     10292     10294
     10283     10281     10289     10291     10283     10281     10289     10292
     10283     10286     10292     10289     10283     10286     10292     10294
     10285     10283     10281     10289     10285     10283     10286     10288
     10285     10283     10286     10292     10286     10283     10281     10289
     10286     10292     10289     10291     10288     10286     10292     10289
     10288     10286     10292     10294     10291     10289     10292     10294
     10296     10301     10303     10305     10296     10301     10303     10306
     10296     10301     10309     10311     10296     10301     10309     10312
     10298     10296     10301     10303     10298     10296     10301     10309
     10299     10296     10301     10303     10299     10296     10301     10309
     10300     10296     10301     10303     10300     10296     10301     10309
     10301     10303     10306     10308     10301     10303     10306     10312
     10301     10309     10312     10306     10301     10309     10312     10314
     10303     10301     10309     10311     10303     10301     10309     10312
     10303     10306     10312     10309     10303     10306     10312     10314
     10305     10303     10301     10309     10305     10303     10306     10308
     10305     10303     10306     10312     10306     10303     10301     10309
     10306     10312     10309     10311     10308     10306     10312     10309
     10308     10306     10312     10314     10311     10309     10312     10314
     10316     10321     10323     10325     10316     10321     10323     10326
     10316     10321     10329     10331     10316     10321     10329     10332
     10318     10316     10321     10323     10318     10316     10321     10329
     10319     10316     10321     10323     10319     10316     10321     10329
     10320     10316     10321     10323     10320     10316     10321     10329
     10321     10323     10326     10328     10321     10323     10326     10332
     10321     10329     10332     10326     10321     10329     10332     10334
     10323     10321     10329     10331     10323     10321     10329     10332
     10323     10326     10332     10329     10323     10326     10332     10334
     10325     10323     10321     10329     10325     10323     10326     10328
     10325     10323     10326     10332     10326     10323     10321     10329
     10326     10332     10329     10331     10328     10326     10332     10329
     10328     10326     10332     10334     10331     10329     10332     10334
     10336     10341     10343     10345     10336     10341     10343     10346
     10336     10341     10349     10351     10336     10341     10349     10352
     10338     10336     10341     10343     10338     10336     10341     10349
     10339     10336     10341     10343     10339     10336     10341     10349
     10340     10336     10341     10343     10340     10336     10341     10349
     10341     10343     10346     10348     10341     10343     10346     10352
     10341     10349     10352     10346     10341     10349     10352     10354
     10343     10341     10349     10351     10343     10341     10349     10352
     10343     10346     10352     10349     10343     10346     10352     10354
     10345     10343     10341     10349     10345     10343     10346     10348
     10345     10343     10346     10352     10346     10343     10341     10349
     10346     10352     10349     10351     10348     10346     10352     10349
     10348     10346     10352     10354     10351     10349     10352     10354
     10356     10361     10363     10365     10356     10361     10363     10366
     10356     10361     10369     10371     10356     10361     10369     10372
     10358     10356     10361     10363     10358     10356     10361     10369
     10359     10356     10361     10363     10359     10356     10361     10369
     10360     10356     10361     10363     10360     10356     10361     10369
     10361     10363     10366     10368     10361     10363     10366     10372
     10361     10369     10372     10366     10361     10369     10372     10374
     10363     10361     10369     10371     10363     10361     10369     10372
     10363     10366     10372     10369     10363     10366     10372     10374
     10365     10363     10361     10369     10365     10363     10366     10368
     10365     10363     10366     10372     10366     10363     10361     10369
     10366     10372     10369     10371     10368     10366     10372     10369
     10368     10366     10372     10374     10371     10369     10372     10374
     10376     10381     10383     10385     10376     10381     10383     10386
     10376     10381     10389     10391     10376     10381     10389     10392
     10378     10376     10381     10383     10378     10376     10381     10389
     10379     10376     10381     10383     10379     10376     10381     10389
     10380     10376     10381     10383     10380     10376     10381     10389
     10381     10383     10386     10388     10381     10383     10386     10392
     10381     10389     10392     10386     10381     10389     10392     10394
     10383     10381     10389     10391     10383     10381     10389     10392
     10383     10386     10392     10389     10383     10386     10392     10394
     10385     10383     10381     10389     10385     10383     10386     10388
     10385     10383     10386     10392     10386     10383     10381     10389
     10386     10392     10389     10391     10388     10386     10392     10389
     10388     10386     10392     10394     10391     10389     10392     10394
     10396     10401     10403     10405     10396     10401     10403     10406
     10396     10401     10409     10411     10396     10401     10409     10412
     10398     10396     10401     10403     10398     10396     10401     10409
     10399     10396     10401     10403     10399     10396     10401     10409
     10400     10396     10401     10403     10400     10396     10401     10409
     10401     10403     10406     10408     10401     10403     10406     10412
     10401     10409     10412     10406     10401     10409     10412     10414
     10403     10401     10409     10411     10403     10401     10409     10412
     10403     10406     10412     10409     10403     10406     10412     10414
     10405     10403     10401     10409     10405     10403     10406     10408
     10405     10403     10406     10412     10406     10403     10401     10409
     10406     10412     10409     10411     10408     10406     10412     10409
     10408     10406     10412     10414     10411     10409     10412     10414
     10416     10421     10423     10425     10416     10421     10423     10426
     10416     10421     10429     10431     10416     10421     10429     10432
     10418     10416     10421     10423     10418     10416     10421     10429
     10419     10416     10421     10423     10419     10416     10421     10429
     10420     10416     10421     10423     10420     10416     10421     10429
     10421     10423     10426     10428     10421     10423     10426     10432
     10421     10429     10432     10426     10421     10429     10432     10434
     10423     10421     10429     10431     10423     10421     10429     10432
     10423     10426     10432     10429     10423     10426     10432     10434
     10425     10423     10421     10429     10425     10423     10426     10428
     10425     10423     10426     10432     10426     10423     10421     10429
     10426     10432     10429     10431     10428     10426     10432     10429
     10428     10426     10432     10434     10431     10429     10432     10434
     10436     10441     10443     10445     10436     10441     10443     10446
     10436     10441     10449     10451     10436     10441     10449     10452
     10438     10436     10441     10443     10438     10436     10441     10449
     10439     10436     10441     10443     10439     10436     10441     10449
     10440     10436     10441     10443     10440     10436     10441     10449
     10441     10443     10446     10448     10441     10443     10446     10452
     10441     10449     10452     10446     10441     10449     10452     10454
     10443     10441     10449     10451     10443     10441     10449     10452
     10443     10446     10452     10449     10443     10446     10452     10454
     10445     10443     10441     10449     10445     10443     10446     10448
     10445     10443     10446     10452     10446     10443     10441     10449
     10446     10452     10449     10451     10448     10446     10452     10449
     10448     10446     10452     10454     10451     10449     10452     10454
     10456     10461     10463     10465     10456     10461     10463     10466
     10456     10461     10469     10471     10456     10461     10469     10472
     10458     10456     10461     10463     10458     10456     10461     10469
     10459     10456     10461     10463     10459     10456     10461     10469
     10460     10456     10461     10463     10460     10456     10461     10469
     10461     10463     10466     10468     10461     10463     10466     10472
     10461     10469     10472     10466     10461     10469     10472     10474
     10463     10461     10469     10471     10463     10461     10469     10472
     10463     10466     10472     10469     10463     10466     10472     10474
     10465     10463     10461     10469     10465     10463     10466     10468
     10465     10463     10466     10472     10466     10463     10461     10469
     10466     10472     10469     10471     10468     10466     10472     10469
     10468     10466     10472     10474     10471     10469     10472     10474
     10476     10481     10483     10485     10476     10481     10483     10486
     10476     10481     10489     10491     10476     10481     10489     10492
     10478     10476     10481     10483     10478     10476     10481     10489
     10479     10476     10481     10483     10479     10476     10481     10489
     10480     10476     10481     10483     10480     10476     10481     10489
     10481     10483     10486     10488     10481     10483     10486     10492
     10481     10489     10492     10486     10481     10489     10492     10494
     10483     10481     10489     10491     10483     10481     10489     10492
     10483     10486     10492     10489     10483     10486     10492     10494
     10485     10483     10481     10489     10485     10483     10486     10488
     10485     10483     10486     10492     10486     10483     10481     10489
     10486     10492     10489     10491     10488     10486     10492     10489
     10488     10486     10492     10494     10491     10489     10492     10494
     10496     10501     10503     10505     10496     10501     10503     10506
     10496     10501     10509     10511     10496     10501     10509     10512
     10498     10496     10501     10503     10498     10496     10501     10509
     10499     10496     10501     10503     10499     10496     10501     10509
     10500     10496     10501     10503     10500     10496     10501     10509
     10501     10503     10506     10508     10501     10503     10506     10512
     10501     10509     10512     10506     10501     10509     10512     10514
     10503     10501     10509     10511     10503     10501     10509     10512
     10503     10506     10512     10509     10503     10506     10512     10514
     10505     10503     10501     10509     10505     10503     10506     10508
     10505     10503     10506     10512     10506     10503     10501     10509
     10506     10512     10509     10511     10508     10506     10512     10509
     10508     10506     10512     10514     10511     10509     10512     10514
     10516     10521     10523     10525     10516     10521     10523     10526
     10516     10521     10529     10531     10516     10521     10529     10532
     10518     10516     10521     10523     10518     10516     10521     10529
     10519     10516     10521     10523     10519     10516     10521     10529
     10520     10516     10521     10523     10520     10516     10521     10529
     10521     10523     10526     10528     10521     10523     10526     10532
     10521     10529     10532     10526     10521     10529     10532     10534
     10523     10521     10529     10531     10523     10521     10529     10532
     10523     10526     10532     10529     10523     10526     10532     10534
     10525     10523     10521     10529     10525     10523     10526     10528
     10525     10523     10526     10532     10526     10523     10521     10529
     10526     10532     10529     10531     10528     10526     10532     10529
     10528     10526     10532     10534     10531     10529     10532     10534
     10536     10541     10543     10545     10536     10541     10543     10546
     10536     10541     10549     10551     10536     10541     10549     10552
     10538     10536     10541     10543     10538     10536     10541     10549
     10539     10536     10541     10543     10539     10536     10541     10549
     10540     10536     10541     10543     10540     10536     10541     10549
     10541     10543     10546     10548     10541     10543     10546     10552
     10541     10549     10552     10546     10541     10549     10552     10554
     10543     10541     10549     10551     10543     10541     10549     10552
     10543     10546     10552     10549     10543     10546     10552     10554
     10545     10543     10541     10549     10545     10543     10546     10548
     10545     10543     10546     10552     10546     10543     10541     10549
     10546     10552     10549     10551     10548     10546     10552     10549
     10548     10546     10552     10554     10551     10549     10552     10554
     10556     10561     10563     10565     10556     10561     10563     10566
     10556     10561     10569     10571     10556     10561     10569     10572
     10558     10556     10561     10563     10558     10556     10561     10569
     10559     10556     10561     10563     10559     10556     10561     10569
     10560     10556     10561     10563     10560     10556     10561     10569
     10561     10563     10566     10568     10561     10563     10566     10572
     10561     10569     10572     10566     10561     10569     10572     10574
     10563     10561     10569     10571     10563     10561     10569     10572
     10563     10566     10572     10569     10563     10566     10572     10574
     10565     10563     10561     10569     10565     10563     10566     10568
     10565     10563     10566     10572     10566     10563     10561     10569
     10566     10572     10569     10571     10568     10566     10572     10569
     10568     10566     10572     10574     10571     10569     10572     10574
     10576     10581     10583     10585     10576     10581     10583     10586
     10576     10581     10589     10591     10576     10581     10589     10592
     10578     10576     10581     10583     10578     10576     10581     10589
     10579     10576     10581     10583     10579     10576     10581     10589
     10580     10576     10581     10583     10580     10576     10581     10589
     10581     10583     10586     10588     10581     10583     10586     10592
     10581     10589     10592     10586     10581     10589     10592     10594
     10583     10581     10589     10591     10583     10581     10589     10592
     10583     10586     10592     10589     10583     10586     10592     10594
     10585     10583     10581     10589     10585     10583     10586     10588
     10585     10583     10586     10592     10586     10583     10581     10589
     10586     10592     10589     10591     10588     10586     10592     10589
     10588     10586     10592     10594     10591     10589     10592     10594
     10596     10601     10603     10605     10596     10601     10603     10606
     10596     10601     10609     10611     10596     10601     10609     10612
     10598     10596     10601     10603     10598     10596     10601     10609
     10599     10596     10601     10603     10599     10596     10601     10609
     10600     10596     10601     10603     10600     10596     10601     10609
     10601     10603     10606     10608     10601     10603     10606     10612
     10601     10609     10612     10606     10601     10609     10612     10614
     10603     10601     10609     10611     10603     10601     10609     10612
     10603     10606     10612     10609     10603     10606     10612     10614
     10605     10603     10601     10609     10605     10603     10606     10608
     10605     10603     10606     10612     10606     10603     10601     10609
     10606     10612     10609     10611     10608     10606     10612     10609
     10608     10606     10612     10614     10611     10609     10612     10614
     10616     10621     10623     10625     10616     10621     10623     10626
     10616     10621     10629     10631     10616     10621     10629     10632
     10618     10616     10621     10623     10618     10616     10621     10629
     10619     10616     10621     10623     10619     10616     10621     10629
     10620     10616     10621     10623     10620     10616     10621     10629
     10621     10623     10626     10628     10621     10623     10626     10632
     10621     10629     10632     10626     10621     10629     10632     10634
     10623     10621     10629     10631     10623     10621     10629     10632
     10623     10626     10632     10629     10623     10626     10632     10634
     10625     10623     10621     10629     10625     10623     10626     10628
     10625     10623     10626     10632     10626     10623     10621     10629
     10626     10632     10629     10631     10628     10626     10632     10629
     10628     10626     10632     10634     10631     10629     10632     10634
     10636     10641     10643     10645     10636     10641     10643     10646
     10636     10641     10649     10651     10636     10641     10649     10652
     10638     10636     10641     10643     10638     10636     10641     10649
     10639     10636     10641     10643     10639     10636     10641     10649
     10640     10636     10641     10643     10640     10636     10641     10649
     10641     10643     10646     10648     10641     10643     10646     10652
     10641     10649     10652     10646     10641     10649     10652     10654
     10643     10641     10649     10651     10643     10641     10649     10652
     10643     10646     10652     10649     10643     10646     10652     10654
     10645     10643     10641     10649     10645     10643     10646     10648
     10645     10643     10646     10652     10646     10643     10641     10649
     10646     10652     10649     10651     10648     10646     10652     10649
     10648     10646     10652     10654     10651     10649     10652     10654
     10656     10661     10663     10665     10656     10661     10663     10666
     10656     10661     10669     10671     10656     10661     10669     10672
     10658     10656     10661     10663     10658     10656     10661     10669
     10659     10656     10661     10663     10659     10656     10661     10669
     10660     10656     10661     10663     10660     10656     10661     10669
     10661     10663     10666     10668     10661     10663     10666     10672
     10661     10669     10672     10666     10661     10669     10672     10674
     10663     10661     10669     10671     10663     10661     10669     10672
     10663     10666     10672     10669     10663     10666     10672     10674
     10665     10663     10661     10669     10665     10663     10666     10668
     10665     10663     10666     10672     10666     10663     10661     10669
     10666     10672     10669     10671     10668     10666     10672     10669
     10668     10666     10672     10674     10671     10669     10672     10674
     10676     10681     10683     10685     10676     10681     10683     10686
     10676     10681     10689     10691     10676     10681     10689     10692
     10678     10676     10681     10683     10678     10676     10681     10689
     10679     10676     10681     10683     10679     10676     10681     10689
     10680     10676     10681     10683     10680     10676     10681     10689
     10681     10683     10686     10688     10681     10683     10686     10692
     10681     10689     10692     10686     10681     10689     10692     10694
     10683     10681     10689     10691     10683     10681     10689     10692
     10683     10686     10692     10689     10683     10686     10692     10694
     10685     10683     10681     10689     10685     10683     10686     10688
     10685     10683     10686     10692     10686     10683     10681     10689
     10686     10692     10689     10691     10688     10686     10692     10689
     10688     10686     10692     10694     10691     10689     10692     10694
     10696     10701     10703     10705     10696     10701     10703     10706
     10696     10701     10709     10711     10696     10701     10709     10712
     10698     10696     10701     10703     10698     10696     10701     10709
     10699     10696     10701     10703     10699     10696     10701     10709
     10700     10696     10701     10703     10700     10696     10701     10709
     10701     10703     10706     10708     10701     10703     10706     10712
     10701     10709     10712     10706     10701     10709     10712     10714
     10703     10701     10709     10711     10703     10701     10709     10712
     10703     10706     10712     10709     10703     10706     10712     10714
     10705     10703     10701     10709     10705     10703     10706     10708
     10705     10703     10706     10712     10706     10703     10701     10709
     10706     10712     10709     10711     10708     10706     10712     10709
     10708     10706     10712     10714     10711     10709     10712     10714
     10716     10721     10723     10725     10716     10721     10723     10726
     10716     10721     10729     10731     10716     10721     10729     10732
     10718     10716     10721     10723     10718     10716     10721     10729
     10719     10716     10721     10723     10719     10716     10721     10729
     10720     10716     10721     10723     10720     10716     10721     10729
     10721     10723     10726     10728     10721     10723     10726     10732
     10721     10729     10732     10726     10721     10729     10732     10734
     10723     10721     10729     10731     10723     10721     10729     10732
     10723     10726     10732     10729     10723     10726     10732     10734
     10725     10723     10721     10729     10725     10723     10726     10728
     10725     10723     10726     10732     10726     10723     10721     10729
     10726     10732     10729     10731     10728     10726     10732     10729
     10728     10726     10732     10734     10731     10729     10732     10734
     10736     10741     10743     10745     10736     10741     10743     10746
     10736     10741     10749     10751     10736     10741     10749     10752
     10738     10736     10741     10743     10738     10736     10741     10749
     10739     10736     10741     10743     10739     10736     10741     10749
     10740     10736     10741     10743     10740     10736     10741     10749
     10741     10743     10746     10748     10741     10743     10746     10752
     10741     10749     10752     10746     10741     10749     10752     10754
     10743     10741     10749     10751     10743     10741     10749     10752
     10743     10746     10752     10749     10743     10746     10752     10754
     10745     10743     10741     10749     10745     10743     10746     10748
     10745     10743     10746     10752     10746     10743     10741     10749
     10746     10752     10749     10751     10748     10746     10752     10749
     10748     10746     10752     10754     10751     10749     10752     10754
     10756     10761     10763     10765     10756     10761     10763     10766
     10756     10761     10769     10771     10756     10761     10769     10772
     10758     10756     10761     10763     10758     10756     10761     10769
     10759     10756     10761     10763     10759     10756     10761     10769
     10760     10756     10761     10763     10760     10756     10761     10769
     10761     10763     10766     10768     10761     10763     10766     10772
     10761     10769     10772     10766     10761     10769     10772     10774
     10763     10761     10769     10771     10763     10761     10769     10772
     10763     10766     10772     10769     10763     10766     10772     10774
     10765     10763     10761     10769     10765     10763     10766     10768
     10765     10763     10766     10772     10766     10763     10761     10769
     10766     10772     10769     10771     10768     10766     10772     10769
     10768     10766     10772     10774     10771     10769     10772     10774
     10776     10781     10783     10785     10776     10781     10783     10786
     10776     10781     10789     10791     10776     10781     10789     10792
     10778     10776     10781     10783     10778     10776     10781     10789
     10779     10776     10781     10783     10779     10776     10781     10789
     10780     10776     10781     10783     10780     10776     10781     10789
     10781     10783     10786     10788     10781     10783     10786     10792
     10781     10789     10792     10786     10781     10789     10792     10794
     10783     10781     10789     10791     10783     10781     10789     10792
     10783     10786     10792     10789     10783     10786     10792     10794
     10785     10783     10781     10789     10785     10783     10786     10788
     10785     10783     10786     10792     10786     10783     10781     10789
     10786     10792     10789     10791     10788     10786     10792     10789
     10788     10786     10792     10794     10791     10789     10792     10794
     10796     10801     10803     10805     10796     10801     10803     10806
     10796     10801     10809     10811     10796     10801     10809     10812
     10798     10796     10801     10803     10798     10796     10801     10809
     10799     10796     10801     10803     10799     10796     10801     10809
     10800     10796     10801     10803     10800     10796     10801     10809
     10801     10803     10806     10808     10801     10803     10806     10812
     10801     10809     10812     10806     10801     10809     10812     10814
     10803     10801     10809     10811     10803     10801     10809     10812
     10803     10806     10812     10809     10803     10806     10812     10814
     10805     10803     10801     10809     10805     10803     10806     10808
     10805     10803     10806     10812     10806     10803     10801     10809
     10806     10812     10809     10811     10808     10806     10812     10809
     10808     10806     10812     10814     10811     10809     10812     10814
     10816     10821     10823     10825     10816     10821     10823     10826
     10816     10821     10829     10831     10816     10821     10829     10832
     10818     10816     10821     10823     10818     10816     10821     10829
     10819     10816     10821     10823     10819     10816     10821     10829
     10820     10816     10821     10823     10820     10816     10821     10829
     10821     10823     10826     10828     10821     10823     10826     10832
     10821     10829     10832     10826     10821     10829     10832     10834
     10823     10821     10829     10831     10823     10821     10829     10832
     10823     10826     10832     10829     10823     10826     10832     10834
     10825     10823     10821     10829     10825     10823     10826     10828
     10825     10823     10826     10832     10826     10823     10821     10829
     10826     10832     10829     10831     10828     10826     10832     10829
     10828     10826     10832     10834     10831     10829     10832     10834
     10836     10841     10843     10845     10836     10841     10843     10846
     10836     10841     10849     10851     10836     10841     10849     10852
     10838     10836     10841     10843     10838     10836     10841     10849
     10839     10836     10841     10843     10839     10836     10841     10849
     10840     10836     10841     10843     10840     10836     10841     10849
     10841     10843     10846     10848     10841     10843     10846     10852
     10841     10849     10852     10846     10841     10849     10852     10854
     10843     10841     10849     10851     10843     10841     10849     10852
     10843     10846     10852     10849     10843     10846     10852     10854
     10845     10843     10841     10849     10845     10843     10846     10848
     10845     10843     10846     10852     10846     10843     10841     10849
     10846     10852     10849     10851     10848     10846     10852     10849
     10848     10846     10852     10854     10851     10849     10852     10854
     10856     10861     10863     10865     10856     10861     10863     10866
     10856     10861     10869     10871     10856     10861     10869     10872
     10858     10856     10861     10863     10858     10856     10861     10869
     10859     10856     10861     10863     10859     10856     10861     10869
     10860     10856     10861     10863     10860     10856     10861     10869
     10861     10863     10866     10868     10861     10863     10866     10872
     10861     10869     10872     10866     10861     10869     10872     10874
     10863     10861     10869     10871     10863     10861     10869     10872
     10863     10866     10872     10869     10863     10866     10872     10874
     10865     10863     10861     10869     10865     10863     10866     10868
     10865     10863     10866     10872     10866     10863     10861     10869
     10866     10872     10869     10871     10868     10866     10872     10869
     10868     10866     10872     10874     10871     10869     10872     10874
     10876     10881     10883     10885     10876     10881     10883     10886
     10876     10881     10889     10891     10876     10881     10889     10892
     10878     10876     10881     10883     10878     10876     10881     10889
     10879     10876     10881     10883     10879     10876     10881     10889
     10880     10876     10881     10883     10880     10876     10881     10889
     10881     10883     10886     10888     10881     10883     10886     10892
     10881     10889     10892     10886     10881     10889     10892     10894
     10883     10881     10889     10891     10883     10881     10889     10892
     10883     10886     10892     10889     10883     10886     10892     10894
     10885     10883     10881     10889     10885     10883     10886     10888
     10885     10883     10886     10892     10886     10883     10881     10889
     10886     10892     10889     10891     10888     10886     10892     10889
     10888     10886     10892     10894     10891     10889     10892     10894
     10896     10901     10903     10905     10896     10901     10903     10906
     10896     10901     10909     10911     10896     10901     10909     10912
     10898     10896     10901     10903     10898     10896     10901     10909
     10899     10896     10901     10903     10899     10896     10901     10909
     10900     10896     10901     10903     10900     10896     10901     10909
     10901     10903     10906     10908     10901     10903     10906     10912
     10901     10909     10912     10906     10901     10909     10912     10914
     10903     10901     10909     10911     10903     10901     10909     10912
     10903     10906     10912     10909     10903     10906     10912     10914
     10905     10903     10901     10909     10905     10903     10906     10908
     10905     10903     10906     10912     10906     10903     10901     10909
     10906     10912     10909     10911     10908     10906     10912     10909
     10908     10906     10912     10914     10911     10909     10912     10914
     10916     10921     10923     10925     10916     10921     10923     10926
     10916     10921     10929     10931     10916     10921     10929     10932
     10918     10916     10921     10923     10918     10916     10921     10929
     10919     10916     10921     10923     10919     10916     10921     10929
     10920     10916     10921     10923     10920     10916     10921     10929
     10921     10923     10926     10928     10921     10923     10926     10932
     10921     10929     10932     10926     10921     10929     10932     10934
     10923     10921     10929     10931     10923     10921     10929     10932
     10923     10926     10932     10929     10923     10926     10932     10934
     10925     10923     10921     10929     10925     10923     10926     10928
     10925     10923     10926     10932     10926     10923     10921     10929
     10926     10932     10929     10931     10928     10926     10932     10929
     10928     10926     10932     10934     10931     10929     10932     10934
     10936     10941     10943     10945     10936     10941     10943     10946
     10936     10941     10949     10951     10936     10941     10949     10952
     10938     10936     10941     10943     10938     10936     10941     10949
     10939     10936     10941     10943     10939     10936     10941     10949
     10940     10936     10941     10943     10940     10936     10941     10949
     10941     10943     10946     10948     10941     10943     10946     10952
     10941     10949     10952     10946     10941     10949     10952     10954
     10943     10941     10949     10951     10943     10941     10949     10952
     10943     10946     10952     10949     10943     10946     10952     10954
     10945     10943     10941     10949     10945     10943     10946     10948
     10945     10943     10946     10952     10946     10943     10941     10949
     10946     10952     10949     10951     10948     10946     10952     10949
     10948     10946     10952     10954     10951     10949     10952     10954
     10956     10961     10963     10965     10956     10961     10963     10966
     10956     10961     10969     10971     10956     10961     10969     10972
     10958     10956     10961     10963     10958     10956     10961     10969
     10959     10956     10961     10963     10959     10956     10961     10969
     10960     10956     10961     10963     10960     10956     10961     10969
     10961     10963     10966     10968     10961     10963     10966     10972
     10961     10969     10972     10966     10961     10969     10972     10974
     10963     10961     10969     10971     10963     10961     10969     10972
     10963     10966     10972     10969     10963     10966     10972     10974
     10965     10963     10961     10969     10965     10963     10966     10968
     10965     10963     10966     10972     10966     10963     10961     10969
     10966     10972     10969     10971     10968     10966     10972     10969
     10968     10966     10972     10974     10971     10969     10972     10974
     10976     10981     10983     10985     10976     10981     10983     10986
     10976     10981     10989     10991     10976     10981     10989     10992
     10978     10976     10981     10983     10978     10976     10981     10989
     10979     10976     10981     10983     10979     10976     10981     10989
     10980     10976     10981     10983     10980     10976     10981     10989
     10981     10983     10986     10988     10981     10983     10986     10992
     10981     10989     10992     10986     10981     10989     10992     10994
     10983     10981     10989     10991     10983     10981     10989     10992
     10983     10986     10992     10989     10983     10986     10992     10994
     10985     10983     10981     10989     10985     10983     10986     10988
     10985     10983     10986     10992     10986     10983     10981     10989
     10986     10992     10989     10991     10988     10986     10992     10989
     10988     10986     10992     10994     10991     10989     10992     10994
     10996     11001     11003     11005     10996     11001     11003     11006
     10996     11001     11009     11011     10996     11001     11009     11012
     10998     10996     11001     11003     10998     10996     11001     11009
     10999     10996     11001     11003     10999     10996     11001     11009
     11000     10996     11001     11003     11000     10996     11001     11009
     11001     11003     11006     11008     11001     11003     11006     11012
     11001     11009     11012     11006     11001     11009     11012     11014
     11003     11001     11009     11011     11003     11001     11009     11012
     11003     11006     11012     11009     11003     11006     11012     11014
     11005     11003     11001     11009     11005     11003     11006     11008
     11005     11003     11006     11012     11006     11003     11001     11009
     11006     11012     11009     11011     11008     11006     11012     11009
     11008     11006     11012     11014     11011     11009     11012     11014
     11016     11021     11023     11025     11016     11021     11023     11026
     11016     11021     11029     11031     11016     11021     11029     11032
     11018     11016     11021     11023     11018     11016     11021     11029
     11019     11016     11021     11023     11019     11016     11021     11029
     11020     11016     11021     11023     11020     11016     11021     11029
     11021     11023     11026     11028     11021     11023     11026     11032
     11021     11029     11032     11026     11021     11029     11032     11034
     11023     11021     11029     11031     11023     11021     11029     11032
     11023     11026     11032     11029     11023     11026     11032     11034
     11025     11023     11021     11029     11025     11023     11026     11028
     11025     11023     11026     11032     11026     11023     11021     11029
     11026     11032     11029     11031     11028     11026     11032     11029
     11028     11026     11032     11034     11031     11029     11032     11034
     11036     11041     11043     11045     11036     11041     11043     11046
     11036     11041     11049     11051     11036     11041     11049     11052
     11038     11036     11041     11043     11038     11036     11041     11049
     11039     11036     11041     11043     11039     11036     11041     11049
     11040     11036     11041     11043     11040     11036     11041     11049
     11041     11043     11046     11048     11041     11043     11046     11052
     11041     11049     11052     11046     11041     11049     11052     11054
     11043     11041     11049     11051     11043     11041     11049     11052
     11043     11046     11052     11049     11043     11046     11052     11054
     11045     11043     11041     11049     11045     11043     11046     11048
     11045     11043     11046     11052     11046     11043     11041     11049
     11046     11052     11049     11051     11048     11046     11052     11049
     11048     11046     11052     11054     11051     11049     11052     11054
     11056     11061     11063     11065     11056     11061     11063     11066
     11056     11061     11069     11071     11056     11061     11069     11072
     11058     11056     11061     11063     11058     11056     11061     11069
     11059     11056     11061     11063     11059     11056     11061     11069
     11060     11056     11061     11063     11060     11056     11061     11069
     11061     11063     11066     11068     11061     11063     11066     11072
     11061     11069     11072     11066     11061     11069     11072     11074
     11063     11061     11069     11071     11063     11061     11069     11072
     11063     11066     11072     11069     11063     11066     11072     11074
     11065     11063     11061     11069     11065     11063     11066     11068
     11065     11063     11066     11072     11066     11063     11061     11069
     11066     11072     11069     11071     11068     11066     11072     11069
     11068     11066     11072     11074     11071     11069     11072     11074
     11076     11081     11083     11085     11076     11081     11083     11086
     11076     11081     11089     11091     11076     11081     11089     11092
     11078     11076     11081     11083     11078     11076     11081     11089
     11079     11076     11081     11083     11079     11076     11081     11089
     11080     11076     11081     11083     11080     11076     11081     11089
     11081     11083     11086     11088     11081     11083     11086     11092
     11081     11089     11092     11086     11081     11089     11092     11094
     11083     11081     11089     11091     11083     11081     11089     11092
     11083     11086     11092     11089     11083     11086     11092     11094
     11085     11083     11081     11089     11085     11083     11086     11088
     11085     11083     11086     11092     11086     11083     11081     11089
     11086     11092     11089     11091     11088     11086     11092     11089
     11088     11086     11092     11094     11091     11089     11092     11094
     11096     11101     11103     11105     11096     11101     11103     11106
     11096     11101     11109     11111     11096     11101     11109     11112
     11098     11096     11101     11103     11098     11096     11101     11109
     11099     11096     11101     11103     11099     11096     11101     11109
     11100     11096     11101     11103     11100     11096     11101     11109
     11101     11103     11106     11108     11101     11103     11106     11112
     11101     11109     11112     11106     11101     11109     11112     11114
     11103     11101     11109     11111     11103     11101     11109     11112
     11103     11106     11112     11109     11103     11106     11112     11114
     11105     11103     11101     11109     11105     11103     11106     11108
     11105     11103     11106     11112     11106     11103     11101     11109
     11106     11112     11109     11111     11108     11106     11112     11109
     11108     11106     11112     11114     11111     11109     11112     11114
     11116     11121     11123     11125     11116     11121     11123     11126
     11116     11121     11129     11131     11116     11121     11129     11132
     11118     11116     11121     11123     11118     11116     11121     11129
     11119     11116     11121     11123     11119     11116     11121     11129
     11120     11116     11121     11123     11120     11116     11121     11129
     11121     11123     11126     11128     11121     11123     11126     11132
     11121     11129     11132     11126     11121     11129     11132     11134
     11123     11121     11129     11131     11123     11121     11129     11132
     11123     11126     11132     11129     11123     11126     11132     11134
     11125     11123     11121     11129     11125     11123     11126     11128
     11125     11123     11126     11132     11126     11123     11121     11129
     11126     11132     11129     11131     11128     11126     11132     11129
     11128     11126     11132     11134     11131     11129     11132     11134
     11136     11141     11143     11145     11136     11141     11143     11146
     11136     11141     11149     11151     11136     11141     11149     11152
     11138     11136     11141     11143     11138     11136     11141     11149
     11139     11136     11141     11143     11139     11136     11141     11149
     11140     11136     11141     11143     11140     11136     11141     11149
     11141     11143     11146     11148     11141     11143     11146     11152
     11141     11149     11152     11146     11141     11149     11152     11154
     11143     11141     11149     11151     11143     11141     11149     11152
     11143     11146     11152     11149     11143     11146     11152     11154
     11145     11143     11141     11149     11145     11143     11146     11148
     11145     11143     11146     11152     11146     11143     11141     11149
     11146     11152     11149     11151     11148     11146     11152     11149
     11148     11146     11152     11154     11151     11149     11152     11154
     11156     11161     11163     11165     11156     11161     11163     11166
     11156     11161     11169     11171     11156     11161     11169     11172
     11158     11156     11161     11163     11158     11156     11161     11169
     11159     11156     11161     11163     11159     11156     11161     11169
     11160     11156     11161     11163     11160     11156     11161     11169
     11161     11163     11166     11168     11161     11163     11166     11172
     11161     11169     11172     11166     11161     11169     11172     11174
     11163     11161     11169     11171     11163     11161     11169     11172
     11163     11166     11172     11169     11163     11166     11172     11174
     11165     11163     11161     11169     11165     11163     11166     11168
     11165     11163     11166     11172     11166     11163     11161     11169
     11166     11172     11169     11171     11168     11166     11172     11169
     11168     11166     11172     11174     11171     11169     11172     11174
     11176     11181     11183     11185     11176     11181     11183     11186
     11176     11181     11189     11191     11176     11181     11189     11192
     11178     11176     11181     11183     11178     11176     11181     11189
     11179     11176     11181     11183     11179     11176     11181     11189
     11180     11176     11181     11183     11180     11176     11181     11189
     11181     11183     11186     11188     11181     11183     11186     11192
     11181     11189     11192     11186     11181     11189     11192     11194
     11183     11181     11189     11191     11183     11181     11189     11192
     11183     11186     11192     11189     11183     11186     11192     11194
     11185     11183     11181     11189     11185     11183     11186     11188
     11185     11183     11186     11192     11186     11183     11181     11189
     11186     11192     11189     11191     11188     11186     11192     11189
     11188     11186     11192     11194     11191     11189     11192     11194
     11196     11201     11203     11205     11196     11201     11203     11206
     11196     11201     11209     11211     11196     11201     11209     11212
     11198     11196     11201     11203     11198     11196     11201     11209
     11199     11196     11201     11203     11199     11196     11201     11209
     11200     11196     11201     11203     11200     11196     11201     11209
     11201     11203     11206     11208     11201     11203     11206     11212
     11201     11209     11212     11206     11201     11209     11212     11214
     11203     11201     11209     11211     11203     11201     11209     11212
     11203     11206     11212     11209     11203     11206     11212     11214
     11205     11203     11201     11209     11205     11203     11206     11208
     11205     11203     11206     11212     11206     11203     11201     11209
     11206     11212     11209     11211     11208     11206     11212     11209
     11208     11206     11212     11214     11211     11209     11212     11214
     11216     11221     11223     11225     11216     11221     11223     11226
     11216     11221     11229     11231     11216     11221     11229     11232
     11218     11216     11221     11223     11218     11216     11221     11229
     11219     11216     11221     11223     11219     11216     11221     11229
     11220     11216     11221     11223     11220     11216     11221     11229
     11221     11223     11226     11228     11221     11223     11226     11232
     11221     11229     11232     11226     11221     11229     11232     11234
     11223     11221     11229     11231     11223     11221     11229     11232
     11223     11226     11232     11229     11223     11226     11232     11234
     11225     11223     11221     11229     11225     11223     11226     11228
     11225     11223     11226     11232     11226     11223     11221     11229
     11226     11232     11229     11231     11228     11226     11232     11229
     11228     11226     11232     11234     11231     11229     11232     11234
     11236     11241     11243     11245     11236     11241     11243     11246
     11236     11241     11249     11251     11236     11241     11249     11252
     11238     11236     11241     11243     11238     11236     11241     11249
     11239     11236     11241     11243     11239     11236     11241     11249
     11240     11236     11241     11243     11240     11236     11241     11249
     11241     11243     11246     11248     11241     11243     11246     11252
     11241     11249     11252     11246     11241     11249     11252     11254
     11243     11241     11249     11251     11243     11241     11249     11252
     11243     11246     11252     11249     11243     11246     11252     11254
     11245     11243     11241     11249     11245     11243     11246     11248
     11245     11243     11246     11252     11246     11243     11241     11249
     11246     11252     11249     11251     11248     11246     11252     11249
     11248     11246     11252     11254     11251     11249     11252     11254
     11256     11261     11263     11265     11256     11261     11263     11266
     11256     11261     11269     11271     11256     11261     11269     11272
     11258     11256     11261     11263     11258     11256     11261     11269
     11259     11256     11261     11263     11259     11256     11261     11269
     11260     11256     11261     11263     11260     11256     11261     11269
     11261     11263     11266     11268     11261     11263     11266     11272
     11261     11269     11272     11266     11261     11269     11272     11274
     11263     11261     11269     11271     11263     11261     11269     11272
     11263     11266     11272     11269     11263     11266     11272     11274
     11265     11263     11261     11269     11265     11263     11266     11268
     11265     11263     11266     11272     11266     11263     11261     11269
     11266     11272     11269     11271     11268     11266     11272     11269
     11268     11266     11272     11274     11271     11269     11272     11274
     11276     11281     11283     11285     11276     11281     11283     11286
     11276     11281     11289     11291     11276     11281     11289     11292
     11278     11276     11281     11283     11278     11276     11281     11289
     11279     11276     11281     11283     11279     11276     11281     11289
     11280     11276     11281     11283     11280     11276     11281     11289
     11281     11283     11286     11288     11281     11283     11286     11292
     11281     11289     11292     11286     11281     11289     11292     11294
     11283     11281     11289     11291     11283     11281     11289     11292
     11283     11286     11292     11289     11283     11286     11292     11294
     11285     11283     11281     11289     11285     11283     11286     11288
     11285     11283     11286     11292     11286     11283     11281     11289
     11286     11292     11289     11291     11288     11286     11292     11289
     11288     11286     11292     11294     11291     11289     11292     11294
     11296     11301     11303     11305     11296     11301     11303     11306
     11296     11301     11309     11311     11296     11301     11309     11312
     11298     11296     11301     11303     11298     11296     11301     11309
     11299     11296     11301     11303     11299     11296     11301     11309
     11300     11296     11301     11303     11300     11296     11301     11309
     11301     11303     11306     11308     11301     11303     11306     11312
     11301     11309     11312     11306     11301     11309     11312     11314
     11303     11301     11309     11311     11303     11301     11309     11312
     11303     11306     11312     11309     11303     11306     11312     11314
     11305     11303     11301     11309     11305     11303     11306     11308
     11305     11303     11306     11312     11306     11303     11301     11309
     11306     11312     11309     11311     11308     11306     11312     11309
     11308     11306     11312     11314     11311     11309     11312     11314
     11316     11321     11323     11325     11316     11321     11323     11326
     11316     11321     11329     11331     11316     11321     11329     11332
     11318     11316     11321     11323     11318     11316     11321     11329
     11319     11316     11321     11323     11319     11316     11321     11329
     11320     11316     11321     11323     11320     11316     11321     11329
     11321     11323     11326     11328     11321     11323     11326     11332
     11321     11329     11332     11326     11321     11329     11332     11334
     11323     11321     11329     11331     11323     11321     11329     11332
     11323     11326     11332     11329     11323     11326     11332     11334
     11325     11323     11321     11329     11325     11323     11326     11328
     11325     11323     11326     11332     11326     11323     11321     11329
     11326     11332     11329     11331     11328     11326     11332     11329
     11328     11326     11332     11334     11331     11329     11332     11334
     11336     11341     11343     11345     11336     11341     11343     11346
     11336     11341     11349     11351     11336     11341     11349     11352
     11338     11336     11341     11343     11338     11336     11341     11349
     11339     11336     11341     11343     11339     11336     11341     11349
     11340     11336     11341     11343     11340     11336     11341     11349
     11341     11343     11346     11348     11341     11343     11346     11352
     11341     11349     11352     11346     11341     11349     11352     11354
     11343     11341     11349     11351     11343     11341     11349     11352
     11343     11346     11352     11349     11343     11346     11352     11354
     11345     11343     11341     11349     11345     11343     11346     11348
     11345     11343     11346     11352     11346     11343     11341     11349
     11346     11352     11349     11351     11348     11346     11352     11349
     11348     11346     11352     11354     11351     11349     11352     11354
     11356     11361     11363     11365     11356     11361     11363     11366
     11356     11361     11369     11371     11356     11361     11369     11372
     11358     11356     11361     11363     11358     11356     11361     11369
     11359     11356     11361     11363     11359     11356     11361     11369
     11360     11356     11361     11363     11360     11356     11361     11369
     11361     11363     11366     11368     11361     11363     11366     11372
     11361     11369     11372     11366     11361     11369     11372     11374
     11363     11361     11369     11371     11363     11361     11369     11372
     11363     11366     11372     11369     11363     11366     11372     11374
     11365     11363     11361     11369     11365     11363     11366     11368
     11365     11363     11366     11372     11366     11363     11361     11369
     11366     11372     11369     11371     11368     11366     11372     11369
     11368     11366     11372     11374     11371     11369     11372     11374
     11376     11381     11383     11385     11376     11381     11383     11386
     11376     11381     11389     11391     11376     11381     11389     11392
     11378     11376     11381     11383     11378     11376     11381     11389
     11379     11376     11381     11383     11379     11376     11381     11389
     11380     11376     11381     11383     11380     11376     11381     11389
     11381     11383     11386     11388     11381     11383     11386     11392
     11381     11389     11392     11386     11381     11389     11392     11394
     11383     11381     11389     11391     11383     11381     11389     11392
     11383     11386     11392     11389     11383     11386     11392     11394
     11385     11383     11381     11389     11385     11383     11386     11388
     11385     11383     11386     11392     11386     11383     11381     11389
     11386     11392     11389     11391     11388     11386     11392     11389
     11388     11386     11392     11394     11391     11389     11392     11394
     11396     11401     11403     11405     11396     11401     11403     11406
     11396     11401     11409     11411     11396     11401     11409     11412
     11398     11396     11401     11403     11398     11396     11401     11409
     11399     11396     11401     11403     11399     11396     11401     11409
     11400     11396     11401     11403     11400     11396     11401     11409
     11401     11403     11406     11408     11401     11403     11406     11412
     11401     11409     11412     11406     11401     11409     11412     11414
     11403     11401     11409     11411     11403     11401     11409     11412
     11403     11406     11412     11409     11403     11406     11412     11414
     11405     11403     11401     11409     11405     11403     11406     11408
     11405     11403     11406     11412     11406     11403     11401     11409
     11406     11412     11409     11411     11408     11406     11412     11409
     11408     11406     11412     11414     11411     11409     11412     11414
     11416     11421     11423     11425     11416     11421     11423     11426
     11416     11421     11429     11431     11416     11421     11429     11432
     11418     11416     11421     11423     11418     11416     11421     11429
     11419     11416     11421     11423     11419     11416     11421     11429
     11420     11416     11421     11423     11420     11416     11421     11429
     11421     11423     11426     11428     11421     11423     11426     11432
     11421     11429     11432     11426     11421     11429     11432     11434
     11423     11421     11429     11431     11423     11421     11429     11432
     11423     11426     11432     11429     11423     11426     11432     11434
     11425     11423     11421     11429     11425     11423     11426     11428
     11425     11423     11426     11432     11426     11423     11421     11429
     11426     11432     11429     11431     11428     11426     11432     11429
     11428     11426     11432     11434     11431     11429     11432     11434
     11436     11441     11443     11445     11436     11441     11443     11446
     11436     11441     11449     11451     11436     11441     11449     11452
     11438     11436     11441     11443     11438     11436     11441     11449
     11439     11436     11441     11443     11439     11436     11441     11449
     11440     11436     11441     11443     11440     11436     11441     11449
     11441     11443     11446     11448     11441     11443     11446     11452
     11441     11449     11452     11446     11441     11449     11452     11454
     11443     11441     11449     11451     11443     11441     11449     11452
     11443     11446     11452     11449     11443     11446     11452     11454
     11445     11443     11441     11449     11445     11443     11446     11448
     11445     11443     11446     11452     11446     11443     11441     11449
     11446     11452     11449     11451     11448     11446     11452     11449
     11448     11446     11452     11454     11451     11449     11452     11454
     11456     11461     11463     11465     11456     11461     11463     11466
     11456     11461     11469     11471     11456     11461     11469     11472
     11458     11456     11461     11463     11458     11456     11461     11469
     11459     11456     11461     11463     11459     11456     11461     11469
     11460     11456     11461     11463     11460     11456     11461     11469
     11461     11463     11466     11468     11461     11463     11466     11472
     11461     11469     11472     11466     11461     11469     11472     11474
     11463     11461     11469     11471     11463     11461     11469     11472
     11463     11466     11472     11469     11463     11466     11472     11474
     11465     11463     11461     11469     11465     11463     11466     11468
     11465     11463     11466     11472     11466     11463     11461     11469
     11466     11472     11469     11471     11468     11466     11472     11469
     11468     11466     11472     11474     11471     11469     11472     11474
     11476     11481     11483     11485     11476     11481     11483     11486
     11476     11481     11489     11491     11476     11481     11489     11492
     11478     11476     11481     11483     11478     11476     11481     11489
     11479     11476     11481     11483     11479     11476     11481     11489
     11480     11476     11481     11483     11480     11476     11481     11489
     11481     11483     11486     11488     11481     11483     11486     11492
     11481     11489     11492     11486     11481     11489     11492     11494
     11483     11481     11489     11491     11483     11481     11489     11492
     11483     11486     11492     11489     11483     11486     11492     11494
     11485     11483     11481     11489     11485     11483     11486     11488
     11485     11483     11486     11492     11486     11483     11481     11489
     11486     11492     11489     11491     11488     11486     11492     11489
     11488     11486     11492     11494     11491     11489     11492     11494
     11496     11501     11503     11505     11496     11501     11503     11506
     11496     11501     11509     11511     11496     11501     11509     11512
     11498     11496     11501     11503     11498     11496     11501     11509
     11499     11496     11501     11503     11499     11496     11501     11509
     11500     11496     11501     11503     11500     11496     11501     11509
     11501     11503     11506     11508     11501     11503     11506     11512
     11501     11509     11512     11506     11501     11509     11512     11514
     11503     11501     11509     11511     11503     11501     11509     11512
     11503     11506     11512     11509     11503     11506     11512     11514
     11505     11503     11501     11509     11505     11503     11506     11508
     11505     11503     11506     11512     11506     11503     11501     11509
     11506     11512     11509     11511     11508     11506     11512     11509
     11508     11506     11512     11514     11511     11509     11512     11514
     11516     11521     11523     11525     11516     11521     11523     11526
     11516     11521     11529     11531     11516     11521     11529     11532
     11518     11516     11521     11523     11518     11516     11521     11529
     11519     11516     11521     11523     11519     11516     11521     11529
     11520     11516     11521     11523     11520     11516     11521     11529
     11521     11523     11526     11528     11521     11523     11526     11532
     11521     11529     11532     11526     11521     11529     11532     11534
     11523     11521     11529     11531     11523     11521     11529     11532
     11523     11526     11532     11529     11523     11526     11532     11534
     11525     11523     11521     11529     11525     11523     11526     11528
     11525     11523     11526     11532     11526     11523     11521     11529
     11526     11532     11529     11531     11528     11526     11532     11529
     11528     11526     11532     11534     11531     11529     11532     11534
     11536     11541     11543     11545     11536     11541     11543     11546
     11536     11541     11549     11551     11536     11541     11549     11552
     11538     11536     11541     11543     11538     11536     11541     11549
     11539     11536     11541     11543     11539     11536     11541     11549
     11540     11536     11541     11543     11540     11536     11541     11549
     11541     11543     11546     11548     11541     11543     11546     11552
     11541     11549     11552     11546     11541     11549     11552     11554
     11543     11541     11549     11551     11543     11541     11549     11552
     11543     11546     11552     11549     11543     11546     11552     11554
     11545     11543     11541     11549     11545     11543     11546     11548
     11545     11543     11546     11552     11546     11543     11541     11549
     11546     11552     11549     11551     11548     11546     11552     11549
     11548     11546     11552     11554     11551     11549     11552     11554
     11556     11561     11563     11565     11556     11561     11563     11566
     11556     11561     11569     11571     11556     11561     11569     11572
     11558     11556     11561     11563     11558     11556     11561     11569
     11559     11556     11561     11563     11559     11556     11561     11569
     11560     11556     11561     11563     11560     11556     11561     11569
     11561     11563     11566     11568     11561     11563     11566     11572
     11561     11569     11572     11566     11561     11569     11572     11574
     11563     11561     11569     11571     11563     11561     11569     11572
     11563     11566     11572     11569     11563     11566     11572     11574
     11565     11563     11561     11569     11565     11563     11566     11568
     11565     11563     11566     11572     11566     11563     11561     11569
     11566     11572     11569     11571     11568     11566     11572     11569
     11568     11566     11572     11574     11571     11569     11572     11574
     11576     11581     11583     11585     11576     11581     11583     11586
     11576     11581     11589     11591     11576     11581     11589     11592
     11578     11576     11581     11583     11578     11576     11581     11589
     11579     11576     11581     11583     11579     11576     11581     11589
     11580     11576     11581     11583     11580     11576     11581     11589
     11581     11583     11586     11588     11581     11583     11586     11592
     11581     11589     11592     11586     11581     11589     11592     11594
     11583     11581     11589     11591     11583     11581     11589     11592
     11583     11586     11592     11589     11583     11586     11592     11594
     11585     11583     11581     11589     11585     11583     11586     11588
     11585     11583     11586     11592     11586     11583     11581     11589
     11586     11592     11589     11591     11588     11586     11592     11589
     11588     11586     11592     11594     11591     11589     11592     11594
     11596     11601     11603     11605     11596     11601     11603     11606
     11596     11601     11609     11611     11596     11601     11609     11612
     11598     11596     11601     11603     11598     11596     11601     11609
     11599     11596     11601     11603     11599     11596     11601     11609
     11600     11596     11601     11603     11600     11596     11601     11609
     11601     11603     11606     11608     11601     11603     11606     11612
     11601     11609     11612     11606     11601     11609     11612     11614
     11603     11601     11609     11611     11603     11601     11609     11612
     11603     11606     11612     11609     11603     11606     11612     11614
     11605     11603     11601     11609     11605     11603     11606     11608
     11605     11603     11606     11612     11606     11603     11601     11609
     11606     11612     11609     11611     11608     11606     11612     11609
     11608     11606     11612     11614     11611     11609     11612     11614
     11616     11621     11623     11625     11616     11621     11623     11626
     11616     11621     11629     11631     11616     11621     11629     11632
     11618     11616     11621     11623     11618     11616     11621     11629
     11619     11616     11621     11623     11619     11616     11621     11629
     11620     11616     11621     11623     11620     11616     11621     11629
     11621     11623     11626     11628     11621     11623     11626     11632
     11621     11629     11632     11626     11621     11629     11632     11634
     11623     11621     11629     11631     11623     11621     11629     11632
     11623     11626     11632     11629     11623     11626     11632     11634
     11625     11623     11621     11629     11625     11623     11626     11628
     11625     11623     11626     11632     11626     11623     11621     11629
     11626     11632     11629     11631     11628     11626     11632     11629
     11628     11626     11632     11634     11631     11629     11632     11634
     11636     11641     11643     11645     11636     11641     11643     11646
     11636     11641     11649     11651     11636     11641     11649     11652
     11638     11636     11641     11643     11638     11636     11641     11649
     11639     11636     11641     11643     11639     11636     11641     11649
     11640     11636     11641     11643     11640     11636     11641     11649
     11641     11643     11646     11648     11641     11643     11646     11652
     11641     11649     11652     11646     11641     11649     11652     11654
     11643     11641     11649     11651     11643     11641     11649     11652
     11643     11646     11652     11649     11643     11646     11652     11654
     11645     11643     11641     11649     11645     11643     11646     11648
     11645     11643     11646     11652     11646     11643     11641     11649
     11646     11652     11649     11651     11648     11646     11652     11649
     11648     11646     11652     11654     11651     11649     11652     11654
     11656     11661     11663     11665     11656     11661     11663     11666
     11656     11661     11669     11671     11656     11661     11669     11672
     11658     11656     11661     11663     11658     11656     11661     11669
     11659     11656     11661     11663     11659     11656     11661     11669
     11660     11656     11661     11663     11660     11656     11661     11669
     11661     11663     11666     11668     11661     11663     11666     11672
     11661     11669     11672     11666     11661     11669     11672     11674
     11663     11661     11669     11671     11663     11661     11669     11672
     11663     11666     11672     11669     11663     11666     11672     11674
     11665     11663     11661     11669     11665     11663     11666     11668
     11665     11663     11666     11672     11666     11663     11661     11669
     11666     11672     11669     11671     11668     11666     11672     11669
     11668     11666     11672     11674     11671     11669     11672     11674
     11676     11681     11683     11685     11676     11681     11683     11686
     11676     11681     11689     11691     11676     11681     11689     11692
     11678     11676     11681     11683     11678     11676     11681     11689
     11679     11676     11681     11683     11679     11676     11681     11689
     11680     11676     11681     11683     11680     11676     11681     11689
     11681     11683     11686     11688     11681     11683     11686     11692
     11681     11689     11692     11686     11681     11689     11692     11694
     11683     11681     11689     11691     11683     11681     11689     11692
     11683     11686     11692     11689     11683     11686     11692     11694
     11685     11683     11681     11689     11685     11683     11686     11688
     11685     11683     11686     11692     11686     11683     11681     11689
     11686     11692     11689     11691     11688     11686     11692     11689
     11688     11686     11692     11694     11691     11689     11692     11694
     11696     11701     11703     11705     11696     11701     11703     11706
     11696     11701     11709     11711     11696     11701     11709     11712
     11698     11696     11701     11703     11698     11696     11701     11709
     11699     11696     11701     11703     11699     11696     11701     11709
     11700     11696     11701     11703     11700     11696     11701     11709
     11701     11703     11706     11708     11701     11703     11706     11712
     11701     11709     11712     11706     11701     11709     11712     11714
     11703     11701     11709     11711     11703     11701     11709     11712
     11703     11706     11712     11709     11703     11706     11712     11714
     11705     11703     11701     11709     11705     11703     11706     11708
     11705     11703     11706     11712     11706     11703     11701     11709
     11706     11712     11709     11711     11708     11706     11712     11709
     11708     11706     11712     11714     11711     11709     11712     11714
     11716     11721     11723     11725     11716     11721     11723     11726
     11716     11721     11729     11731     11716     11721     11729     11732
     11718     11716     11721     11723     11718     11716     11721     11729
     11719     11716     11721     11723     11719     11716     11721     11729
     11720     11716     11721     11723     11720     11716     11721     11729
     11721     11723     11726     11728     11721     11723     11726     11732
     11721     11729     11732     11726     11721     11729     11732     11734
     11723     11721     11729     11731     11723     11721     11729     11732
     11723     11726     11732     11729     11723     11726     11732     11734
     11725     11723     11721     11729     11725     11723     11726     11728
     11725     11723     11726     11732     11726     11723     11721     11729
     11726     11732     11729     11731     11728     11726     11732     11729
     11728     11726     11732     11734     11731     11729     11732     11734
     11736     11741     11743     11745     11736     11741     11743     11746
     11736     11741     11749     11751     11736     11741     11749     11752
     11738     11736     11741     11743     11738     11736     11741     11749
     11739     11736     11741     11743     11739     11736     11741     11749
     11740     11736     11741     11743     11740     11736     11741     11749
     11741     11743     11746     11748     11741     11743     11746     11752
     11741     11749     11752     11746     11741     11749     11752     11754
     11743     11741     11749     11751     11743     11741     11749     11752
     11743     11746     11752     11749     11743     11746     11752     11754
     11745     11743     11741     11749     11745     11743     11746     11748
     11745     11743     11746     11752     11746     11743     11741     11749
     11746     11752     11749     11751     11748     11746     11752     11749
     11748     11746     11752     11754     11751     11749     11752     11754
     11756     11761     11763     11765     11756     11761     11763     11766
     11756     11761     11769     11771     11756     11761     11769     11772
     11758     11756     11761     11763     11758     11756     11761     11769
     11759     11756     11761     11763     11759     11756     11761     11769
     11760     11756     11761     11763     11760     11756     11761     11769
     11761     11763     11766     11768     11761     11763     11766     11772
     11761     11769     11772     11766     11761     11769     11772     11774
     11763     11761     11769     11771     11763     11761     11769     11772
     11763     11766     11772     11769     11763     11766     11772     11774
     11765     11763     11761     11769     11765     11763     11766     11768
     11765     11763     11766     11772     11766     11763     11761     11769
     11766     11772     11769     11771     11768     11766     11772     11769
     11768     11766     11772     11774     11771     11769     11772     11774
     11776     11781     11783     11785     11776     11781     11783     11786
     11776     11781     11789     11791     11776     11781     11789     11792
     11778     11776     11781     11783     11778     11776     11781     11789
     11779     11776     11781     11783     11779     11776     11781     11789
     11780     11776     11781     11783     11780     11776     11781     11789
     11781     11783     11786     11788     11781     11783     11786     11792
     11781     11789     11792     11786     11781     11789     11792     11794
     11783     11781     11789     11791     11783     11781     11789     11792
     11783     11786     11792     11789     11783     11786     11792     11794
     11785     11783     11781     11789     11785     11783     11786     11788
     11785     11783     11786     11792     11786     11783     11781     11789
     11786     11792     11789     11791     11788     11786     11792     11789
     11788     11786     11792     11794     11791     11789     11792     11794
     11796     11801     11803     11805     11796     11801     11803     11806
     11796     11801     11809     11811     11796     11801     11809     11812
     11798     11796     11801     11803     11798     11796     11801     11809
     11799     11796     11801     11803     11799     11796     11801     11809
     11800     11796     11801     11803     11800     11796     11801     11809
     11801     11803     11806     11808     11801     11803     11806     11812
     11801     11809     11812     11806     11801     11809     11812     11814
     11803     11801     11809     11811     11803     11801     11809     11812
     11803     11806     11812     11809     11803     11806     11812     11814
     11805     11803     11801     11809     11805     11803     11806     11808
     11805     11803     11806     11812     11806     11803     11801     11809
     11806     11812     11809     11811     11808     11806     11812     11809
     11808     11806     11812     11814     11811     11809     11812     11814
     11816     11821     11823     11825     11816     11821     11823     11826
     11816     11821     11829     11831     11816     11821     11829     11832
     11818     11816     11821     11823     11818     11816     11821     11829
     11819     11816     11821     11823     11819     11816     11821     11829
     11820     11816     11821     11823     11820     11816     11821     11829
     11821     11823     11826     11828     11821     11823     11826     11832
     11821     11829     11832     11826     11821     11829     11832     11834
     11823     11821     11829     11831     11823     11821     11829     11832
     11823     11826     11832     11829     11823     11826     11832     11834
     11825     11823     11821     11829     11825     11823     11826     11828
     11825     11823     11826     11832     11826     11823     11821     11829
     11826     11832     11829     11831     11828     11826     11832     11829
     11828     11826     11832     11834     11831     11829     11832     11834
     11836     11841     11843     11845     11836     11841     11843     11846
     11836     11841     11849     11851     11836     11841     11849     11852
     11838     11836     11841     11843     11838     11836     11841     11849
     11839     11836     11841     11843     11839     11836     11841     11849
     11840     11836     11841     11843     11840     11836     11841     11849
     11841     11843     11846     11848     11841     11843     11846     11852
     11841     11849     11852     11846     11841     11849     11852     11854
     11843     11841     11849     11851     11843     11841     11849     11852
     11843     11846     11852     11849     11843     11846     11852     11854
     11845     11843     11841     11849     11845     11843     11846     11848
     11845     11843     11846     11852     11846     11843     11841     11849
     11846     11852     11849     11851     11848     11846     11852     11849
     11848     11846     11852     11854     11851     11849     11852     11854
     11856     11861     11863     11865     11856     11861     11863     11866
     11856     11861     11869     11871     11856     11861     11869     11872
     11858     11856     11861     11863     11858     11856     11861     11869
     11859     11856     11861     11863     11859     11856     11861     11869
     11860     11856     11861     11863     11860     11856     11861     11869
     11861     11863     11866     11868     11861     11863     11866     11872
     11861     11869     11872     11866     11861     11869     11872     11874
     11863     11861     11869     11871     11863     11861     11869     11872
     11863     11866     11872     11869     11863     11866     11872     11874
     11865     11863     11861     11869     11865     11863     11866     11868
     11865     11863     11866     11872     11866     11863     11861     11869
     11866     11872     11869     11871     11868     11866     11872     11869
     11868     11866     11872     11874     11871     11869     11872     11874
     11876     11881     11883     11885     11876     11881     11883     11886
     11876     11881     11889     11891     11876     11881     11889     11892
     11878     11876     11881     11883     11878     11876     11881     11889
     11879     11876     11881     11883     11879     11876     11881     11889
     11880     11876     11881     11883     11880     11876     11881     11889
     11881     11883     11886     11888     11881     11883     11886     11892
     11881     11889     11892     11886     11881     11889     11892     11894
     11883     11881     11889     11891     11883     11881     11889     11892
     11883     11886     11892     11889     11883     11886     11892     11894
     11885     11883     11881     11889     11885     11883     11886     11888
     11885     11883     11886     11892     11886     11883     11881     11889
     11886     11892     11889     11891     11888     11886     11892     11889
     11888     11886     11892     11894     11891     11889     11892     11894
     11896     11901     11903     11905     11896     11901     11903     11906
     11896     11901     11909     11911     11896     11901     11909     11912
     11898     11896     11901     11903     11898     11896     11901     11909
     11899     11896     11901     11903     11899     11896     11901     11909
     11900     11896     11901     11903     11900     11896     11901     11909
     11901     11903     11906     11908     11901     11903     11906     11912
     11901     11909     11912     11906     11901     11909     11912     11914
     11903     11901     11909     11911     11903     11901     11909     11912
     11903     11906     11912     11909     11903     11906     11912     11914
     11905     11903     11901     11909     11905     11903     11906     11908
     11905     11903     11906     11912     11906     11903     11901     11909
     11906     11912     11909     11911     11908     11906     11912     11909
     11908     11906     11912     11914     11911     11909     11912     11914
     11916     11921     11923     11925     11916     11921     11923     11926
     11916     11921     11929     11931     11916     11921     11929     11932
     11918     11916     11921     11923     11918     11916     11921     11929
     11919     11916     11921     11923     11919     11916     11921     11929
     11920     11916     11921     11923     11920     11916     11921     11929
     11921     11923     11926     11928     11921     11923     11926     11932
     11921     11929     11932     11926     11921     11929     11932     11934
     11923     11921     11929     11931     11923     11921     11929     11932
     11923     11926     11932     11929     11923     11926     11932     11934
     11925     11923     11921     11929     11925     11923     11926     11928
     11925     11923     11926     11932     11926     11923     11921     11929
     11926     11932     11929     11931     11928     11926     11932     11929
     11928     11926     11932     11934     11931     11929     11932     11934
     11936     11941     11943     11945     11936     11941     11943     11946
     11936     11941     11949     11951     11936     11941     11949     11952
     11938     11936     11941     11943     11938     11936     11941     11949
     11939     11936     11941     11943     11939     11936     11941     11949
     11940     11936     11941     11943     11940     11936     11941     11949
     11941     11943     11946     11948     11941     11943     11946     11952
     11941     11949     11952     11946     11941     11949     11952     11954
     11943     11941     11949     11951     11943     11941     11949     11952
     11943     11946     11952     11949     11943     11946     11952     11954
     11945     11943     11941     11949     11945     11943     11946     11948
     11945     11943     11946     11952     11946     11943     11941     11949
     11946     11952     11949     11951     11948     11946     11952     11949
     11948     11946     11952     11954     11951     11949     11952     11954
     11956     11961     11963     11965     11956     11961     11963     11966
     11956     11961     11969     11971     11956     11961     11969     11972
     11958     11956     11961     11963     11958     11956     11961     11969
     11959     11956     11961     11963     11959     11956     11961     11969
     11960     11956     11961     11963     11960     11956     11961     11969
     11961     11963     11966     11968     11961     11963     11966     11972
     11961     11969     11972     11966     11961     11969     11972     11974
     11963     11961     11969     11971     11963     11961     11969     11972
     11963     11966     11972     11969     11963     11966     11972     11974
     11965     11963     11961     11969     11965     11963     11966     11968
     11965     11963     11966     11972     11966     11963     11961     11969
     11966     11972     11969     11971     11968     11966     11972     11969
     11968     11966     11972     11974     11971     11969     11972     11974
     11976     11981     11983     11985     11976     11981     11983     11986
     11976     11981     11989     11991     11976     11981     11989     11992
     11978     11976     11981     11983     11978     11976     11981     11989
     11979     11976     11981     11983     11979     11976     11981     11989
     11980     11976     11981     11983     11980     11976     11981     11989
     11981     11983     11986     11988     11981     11983     11986     11992
     11981     11989     11992     11986     11981     11989     11992     11994
     11983     11981     11989     11991     11983     11981     11989     11992
     11983     11986     11992     11989     11983     11986     11992     11994
     11985     11983     11981     11989     11985     11983     11986     11988
     11985     11983     11986     11992     11986     11983     11981     11989
     11986     11992     11989     11991     11988     11986     11992     11989
     11988     11986     11992     11994     11991     11989     11992     11994
     11996     12001     12003     12005     11996     12001     12003     12006
     11996     12001     12009     12011     11996     12001     12009     12012
     11998     11996     12001     12003     11998     11996     12001     12009
     11999     11996     12001     12003     11999     11996     12001     12009
     12000     11996     12001     12003     12000     11996     12001     12009
     12001     12003     12006     12008     12001     12003     12006     12012
     12001     12009     12012     12006     12001     12009     12012     12014
     12003     12001     12009     12011     12003     12001     12009     12012
     12003     12006     12012     12009     12003     12006     12012     12014
     12005     12003     12001     12009     12005     12003     12006     12008
     12005     12003     12006     12012     12006     12003     12001     12009
     12006     12012     12009     12011     12008     12006     12012     12009
     12008     12006     12012     12014     12011     12009     12012     12014
     12016     12021     12023     12025     12016     12021     12023     12026
     12016     12021     12029     12031     12016     12021     12029     12032
     12018     12016     12021     12023     12018     12016     12021     12029
     12019     12016     12021     12023     12019     12016     12021     12029
     12020     12016     12021     12023     12020     12016     12021     12029
     12021     12023     12026     12028     12021     12023     12026     12032
     12021     12029     12032     12026     12021     12029     12032     12034
     12023     12021     12029     12031     12023     12021     12029     12032
     12023     12026     12032     12029     12023     12026     12032     12034
     12025     12023     12021     12029     12025     12023     12026     12028
     12025     12023     12026     12032     12026     12023     12021     12029
     12026     12032     12029     12031     12028     12026     12032     12029
     12028     12026     12032     12034     12031     12029     12032     12034
     12036     12041     12043     12045     12036     12041     12043     12046
     12036     12041     12049     12051     12036     12041     12049     12052
     12038     12036     12041     12043     12038     12036     12041     12049
     12039     12036     12041     12043     12039     12036     12041     12049
     12040     12036     12041     12043     12040     12036     12041     12049
     12041     12043     12046     12048     12041     12043     12046     12052
     12041     12049     12052     12046     12041     12049     12052     12054
     12043     12041     12049     12051     12043     12041     12049     12052
     12043     12046     12052     12049     12043     12046     12052     12054
     12045     12043     12041     12049     12045     12043     12046     12048
     12045     12043     12046     12052     12046     12043     12041     12049
     12046     12052     12049     12051     12048     12046     12052     12049
     12048     12046     12052     12054     12051     12049     12052     12054
     12056     12061     12063     12065     12056     12061     12063     12066
     12056     12061     12069     12071     12056     12061     12069     12072
     12058     12056     12061     12063     12058     12056     12061     12069
     12059     12056     12061     12063     12059     12056     12061     12069
     12060     12056     12061     12063     12060     12056     12061     12069
     12061     12063     12066     12068     12061     12063     12066     12072
     12061     12069     12072     12066     12061     12069     12072     12074
     12063     12061     12069     12071     12063     12061     12069     12072
     12063     12066     12072     12069     12063     12066     12072     12074
     12065     12063     12061     12069     12065     12063     12066     12068
     12065     12063     12066     12072     12066     12063     12061     12069
     12066     12072     12069     12071     12068     12066     12072     12069
     12068     12066     12072     12074     12071     12069     12072     12074
     12076     12081     12083     12085     12076     12081     12083     12086
     12076     12081     12089     12091     12076     12081     12089     12092
     12078     12076     12081     12083     12078     12076     12081     12089
     12079     12076     12081     12083     12079     12076     12081     12089
     12080     12076     12081     12083     12080     12076     12081     12089
     12081     12083     12086     12088     12081     12083     12086     12092
     12081     12089     12092     12086     12081     12089     12092     12094
     12083     12081     12089     12091     12083     12081     12089     12092
     12083     12086     12092     12089     12083     12086     12092     12094
     12085     12083     12081     12089     12085     12083     12086     12088
     12085     12083     12086     12092     12086     12083     12081     12089
     12086     12092     12089     12091     12088     12086     12092     12089
     12088     12086     12092     12094     12091     12089     12092     12094
     12096     12101     12103     12105     12096     12101     12103     12106
     12096     12101     12109     12111     12096     12101     12109     12112
     12098     12096     12101     12103     12098     12096     12101     12109
     12099     12096     12101     12103     12099     12096     12101     12109
     12100     12096     12101     12103     12100     12096     12101     12109
     12101     12103     12106     12108     12101     12103     12106     12112
     12101     12109     12112     12106     12101     12109     12112     12114
     12103     12101     12109     12111     12103     12101     12109     12112
     12103     12106     12112     12109     12103     12106     12112     12114
     12105     12103     12101     12109     12105     12103     12106     12108
     12105     12103     12106     12112     12106     12103     12101     12109
     12106     12112     12109     12111     12108     12106     12112     12109
     12108     12106     12112     12114     12111     12109     12112     12114
     12116     12121     12123     12125     12116     12121     12123     12126
     12116     12121     12129     12131     12116     12121     12129     12132
     12118     12116     12121     12123     12118     12116     12121     12129
     12119     12116     12121     12123     12119     12116     12121     12129
     12120     12116     12121     12123     12120     12116     12121     12129
     12121     12123     12126     12128     12121     12123     12126     12132
     12121     12129     12132     12126     12121     12129     12132     12134
     12123     12121     12129     12131     12123     12121     12129     12132
     12123     12126     12132     12129     12123     12126     12132     12134
     12125     12123     12121     12129     12125     12123     12126     12128
     12125     12123     12126     12132     12126     12123     12121     12129
     12126     12132     12129     12131     12128     12126     12132     12129
     12128     12126     12132     12134     12131     12129     12132     12134
     12136     12141     12143     12145     12136     12141     12143     12146
     12136     12141     12149     12151     12136     12141     12149     12152
     12138     12136     12141     12143     12138     12136     12141     12149
     12139     12136     12141     12143     12139     12136     12141     12149
     12140     12136     12141     12143     12140     12136     12141     12149
     12141     12143     12146     12148     12141     12143     12146     12152
     12141     12149     12152     12146     12141     12149     12152     12154
     12143     12141     12149     12151     12143     12141     12149     12152
     12143     12146     12152     12149     12143     12146     12152     12154
     12145     12143     12141     12149     12145     12143     12146     12148
     12145     12143     12146     12152     12146     12143     12141     12149
     12146     12152     12149     12151     12148     12146     12152     12149
     12148     12146     12152     12154     12151     12149     12152     12154
     12156     12161     12163     12165     12156     12161     12163     12166
     12156     12161     12169     12171     12156     12161     12169     12172
     12158     12156     12161     12163     12158     12156     12161     12169
     12159     12156     12161     12163     12159     12156     12161     12169
     12160     12156     12161     12163     12160     12156     12161     12169
     12161     12163     12166     12168     12161     12163     12166     12172
     12161     12169     12172     12166     12161     12169     12172     12174
     12163     12161     12169     12171     12163     12161     12169     12172
     12163     12166     12172     12169     12163     12166     12172     12174
     12165     12163     12161     12169     12165     12163     12166     12168
     12165     12163     12166     12172     12166     12163     12161     12169
     12166     12172     12169     12171     12168     12166     12172     12169
     12168     12166     12172     12174     12171     12169     12172     12174
     12176     12181     12183     12185     12176     12181     12183     12186
     12176     12181     12189     12191     12176     12181     12189     12192
     12178     12176     12181     12183     12178     12176     12181     12189
     12179     12176     12181     12183     12179     12176     12181     12189
     12180     12176     12181     12183     12180     12176     12181     12189
     12181     12183     12186     12188     12181     12183     12186     12192
     12181     12189     12192     12186     12181     12189     12192     12194
     12183     12181     12189     12191     12183     12181     12189     12192
     12183     12186     12192     12189     12183     12186     12192     12194
     12185     12183     12181     12189     12185     12183     12186     12188
     12185     12183     12186     12192     12186     12183     12181     12189
     12186     12192     12189     12191     12188     12186     12192     12189
     12188     12186     12192     12194     12191     12189     12192     12194
     12196     12201     12203     12205     12196     12201     12203     12206
     12196     12201     12209     12211     12196     12201     12209     12212
     12198     12196     12201     12203     12198     12196     12201     12209
     12199     12196     12201     12203     12199     12196     12201     12209
     12200     12196     12201     12203     12200     12196     12201     12209
     12201     12203     12206     12208     12201     12203     12206     12212
     12201     12209     12212     12206     12201     12209     12212     12214
     12203     12201     12209     12211     12203     12201     12209     12212
     12203     12206     12212     12209     12203     12206     12212     12214
     12205     12203     12201     12209     12205     12203     12206     12208
     12205     12203     12206     12212     12206     12203     12201     12209
     12206     12212     12209     12211     12208     12206     12212     12209
     12208     12206     12212     12214     12211     12209     12212     12214
     12216     12221     12223     12225     12216     12221     12223     12226
     12216     12221     12229     12231     12216     12221     12229     12232
     12218     12216     12221     12223     12218     12216     12221     12229
     12219     12216     12221     12223     12219     12216     12221     12229
     12220     12216     12221     12223     12220     12216     12221     12229
     12221     12223     12226     12228     12221     12223     12226     12232
     12221     12229     12232     12226     12221     12229     12232     12234
     12223     12221     12229     12231     12223     12221     12229     12232
     12223     12226     12232     12229     12223     12226     12232     12234
     12225     12223     12221     12229     12225     12223     12226     12228
     12225     12223     12226     12232     12226     12223     12221     12229
     12226     12232     12229     12231     12228     12226     12232     12229
     12228     12226     12232     12234     12231     12229     12232     12234
     12236     12241     12243     12245     12236     12241     12243     12246
     12236     12241     12249     12251     12236     12241     12249     12252
     12238     12236     12241     12243     12238     12236     12241     12249
     12239     12236     12241     12243     12239     12236     12241     12249
     12240     12236     12241     12243     12240     12236     12241     12249
     12241     12243     12246     12248     12241     12243     12246     12252
     12241     12249     12252     12246     12241     12249     12252     12254
     12243     12241     12249     12251     12243     12241     12249     12252
     12243     12246     12252     12249     12243     12246     12252     12254
     12245     12243     12241     12249     12245     12243     12246     12248
     12245     12243     12246     12252     12246     12243     12241     12249
     12246     12252     12249     12251     12248     12246     12252     12249
     12248     12246     12252     12254     12251     12249     12252     12254
     12256     12261     12263     12265     12256     12261     12263     12266
     12256     12261     12269     12271     12256     12261     12269     12272
     12258     12256     12261     12263     12258     12256     12261     12269
     12259     12256     12261     12263     12259     12256     12261     12269
     12260     12256     12261     12263     12260     12256     12261     12269
     12261     12263     12266     12268     12261     12263     12266     12272
     12261     12269     12272     12266     12261     12269     12272     12274
     12263     12261     12269     12271     12263     12261     12269     12272
     12263     12266     12272     12269     12263     12266     12272     12274
     12265     12263     12261     12269     12265     12263     12266     12268
     12265     12263     12266     12272     12266     12263     12261     12269
     12266     12272     12269     12271     12268     12266     12272     12269
     12268     12266     12272     12274     12271     12269     12272     12274
     12276     12281     12283     12285     12276     12281     12283     12286
     12276     12281     12289     12291     12276     12281     12289     12292
     12278     12276     12281     12283     12278     12276     12281     12289
     12279     12276     12281     12283     12279     12276     12281     12289
     12280     12276     12281     12283     12280     12276     12281     12289
     12281     12283     12286     12288     12281     12283     12286     12292
     12281     12289     12292     12286     12281     12289     12292     12294
     12283     12281     12289     12291     12283     12281     12289     12292
     12283     12286     12292     12289     12283     12286     12292     12294
     12285     12283     12281     12289     12285     12283     12286     12288
     12285     12283     12286     12292     12286     12283     12281     12289
     12286     12292     12289     12291     12288     12286     12292     12289
     12288     12286     12292     12294     12291     12289     12292     12294
     12296     12301     12303     12305     12296     12301     12303     12306
     12296     12301     12309     12311     12296     12301     12309     12312
     12298     12296     12301     12303     12298     12296     12301     12309
     12299     12296     12301     12303     12299     12296     12301     12309
     12300     12296     12301     12303     12300     12296     12301     12309
     12301     12303     12306     12308     12301     12303     12306     12312
     12301     12309     12312     12306     12301     12309     12312     12314
     12303     12301     12309     12311     12303     12301     12309     12312
     12303     12306     12312     12309     12303     12306     12312     12314
     12305     12303     12301     12309     12305     12303     12306     12308
     12305     12303     12306     12312     12306     12303     12301     12309
     12306     12312     12309     12311     12308     12306     12312     12309
     12308     12306     12312     12314     12311     12309     12312     12314
     12316     12321     12323     12325     12316     12321     12323     12326
     12316     12321     12329     12331     12316     12321     12329     12332
     12318     12316     12321     12323     12318     12316     12321     12329
     12319     12316     12321     12323     12319     12316     12321     12329
     12320     12316     12321     12323     12320     12316     12321     12329
     12321     12323     12326     12328     12321     12323     12326     12332
     12321     12329     12332     12326     12321     12329     12332     12334
     12323     12321     12329     12331     12323     12321     12329     12332
     12323     12326     12332     12329     12323     12326     12332     12334
     12325     12323     12321     12329     12325     12323     12326     12328
     12325     12323     12326     12332     12326     12323     12321     12329
     12326     12332     12329     12331     12328     12326     12332     12329
     12328     12326     12332     12334     12331     12329     12332     12334
     12336     12341     12343     12345     12336     12341     12343     12346
     12336     12341     12349     12351     12336     12341     12349     12352
     12338     12336     12341     12343     12338     12336     12341     12349
     12339     12336     12341     12343     12339     12336     12341     12349
     12340     12336     12341     12343     12340     12336     12341     12349
     12341     12343     12346     12348     12341     12343     12346     12352
     12341     12349     12352     12346     12341     12349     12352     12354
     12343     12341     12349     12351     12343     12341     12349     12352
     12343     12346     12352     12349     12343     12346     12352     12354
     12345     12343     12341     12349     12345     12343     12346     12348
     12345     12343     12346     12352     12346     12343     12341     12349
     12346     12352     12349     12351     12348     12346     12352     12349
     12348     12346     12352     12354     12351     12349     12352     12354
     12356     12361     12363     12365     12356     12361     12363     12366
     12356     12361     12369     12371     12356     12361     12369     12372
     12358     12356     12361     12363     12358     12356     12361     12369
     12359     12356     12361     12363     12359     12356     12361     12369
     12360     12356     12361     12363     12360     12356     12361     12369
     12361     12363     12366     12368     12361     12363     12366     12372
     12361     12369     12372     12366     12361     12369     12372     12374
     12363     12361     12369     12371     12363     12361     12369     12372
     12363     12366     12372     12369     12363     12366     12372     12374
     12365     12363     12361     12369     12365     12363     12366     12368
     12365     12363     12366     12372     12366     12363     12361     12369
     12366     12372     12369     12371     12368     12366     12372     12369
     12368     12366     12372     12374     12371     12369     12372     12374
     12376     12381     12383     12385     12376     12381     12383     12386
     12376     12381     12389     12391     12376     12381     12389     12392
     12378     12376     12381     12383     12378     12376     12381     12389
     12379     12376     12381     12383     12379     12376     12381     12389
     12380     12376     12381     12383     12380     12376     12381     12389
     12381     12383     12386     12388     12381     12383     12386     12392
     12381     12389     12392     12386     12381     12389     12392     12394
     12383     12381     12389     12391     12383     12381     12389     12392
     12383     12386     12392     12389     12383     12386     12392     12394
     12385     12383     12381     12389     12385     12383     12386     12388
     12385     12383     12386     12392     12386     12383     12381     12389
     12386     12392     12389     12391     12388     12386     12392     12389
     12388     12386     12392     12394     12391     12389     12392     12394
     12396     12401     12403     12405     12396     12401     12403     12406
     12396     12401     12409     12411     12396     12401     12409     12412
     12398     12396     12401     12403     12398     12396     12401     12409
     12399     12396     12401     12403     12399     12396     12401     12409
     12400     12396     12401     12403     12400     12396     12401     12409
     12401     12403     12406     12408     12401     12403     12406     12412
     12401     12409     12412     12406     12401     12409     12412     12414
     12403     12401     12409     12411     12403     12401     12409     12412
     12403     12406     12412     12409     12403     12406     12412     12414
     12405     12403     12401     12409     12405     12403     12406     12408
     12405     12403     12406     12412     12406     12403     12401     12409
     12406     12412     12409     12411     12408     12406     12412     12409
     12408     12406     12412     12414     12411     12409     12412     12414
     12416     12421     12423     12425     12416     12421     12423     12426
     12416     12421     12429     12431     12416     12421     12429     12432
     12418     12416     12421     12423     12418     12416     12421     12429
     12419     12416     12421     12423     12419     12416     12421     12429
     12420     12416     12421     12423     12420     12416     12421     12429
     12421     12423     12426     12428     12421     12423     12426     12432
     12421     12429     12432     12426     12421     12429     12432     12434
     12423     12421     12429     12431     12423     12421     12429     12432
     12423     12426     12432     12429     12423     12426     12432     12434
     12425     12423     12421     12429     12425     12423     12426     12428
     12425     12423     12426     12432     12426     12423     12421     12429
     12426     12432     12429     12431     12428     12426     12432     12429
     12428     12426     12432     12434     12431     12429     12432     12434
     12436     12441     12443     12445     12436     12441     12443     12446
     12436     12441     12449     12451     12436     12441     12449     12452
     12438     12436     12441     12443     12438     12436     12441     12449
     12439     12436     12441     12443     12439     12436     12441     12449
     12440     12436     12441     12443     12440     12436     12441     12449
     12441     12443     12446     12448     12441     12443     12446     12452
     12441     12449     12452     12446     12441     12449     12452     12454
     12443     12441     12449     12451     12443     12441     12449     12452
     12443     12446     12452     12449     12443     12446     12452     12454
     12445     12443     12441     12449     12445     12443     12446     12448
     12445     12443     12446     12452     12446     12443     12441     12449
     12446     12452     12449     12451     12448     12446     12452     12449
     12448     12446     12452     12454     12451     12449     12452     12454
     12456     12461     12463     12465     12456     12461     12463     12466
     12456     12461     12469     12471     12456     12461     12469     12472
     12458     12456     12461     12463     12458     12456     12461     12469
     12459     12456     12461     12463     12459     12456     12461     12469
     12460     12456     12461     12463     12460     12456     12461     12469
     12461     12463     12466     12468     12461     12463     12466     12472
     12461     12469     12472     12466     12461     12469     12472     12474
     12463     12461     12469     12471     12463     12461     12469     12472
     12463     12466     12472     12469     12463     12466     12472     12474
     12465     12463     12461     12469     12465     12463     12466     12468
     12465     12463     12466     12472     12466     12463     12461     12469
     12466     12472     12469     12471     12468     12466     12472     12469
     12468     12466     12472     12474     12471     12469     12472     12474
     12476     12481     12483     12485     12476     12481     12483     12486
     12476     12481     12489     12491     12476     12481     12489     12492
     12478     12476     12481     12483     12478     12476     12481     12489
     12479     12476     12481     12483     12479     12476     12481     12489
     12480     12476     12481     12483     12480     12476     12481     12489
     12481     12483     12486     12488     12481     12483     12486     12492
     12481     12489     12492     12486     12481     12489     12492     12494
     12483     12481     12489     12491     12483     12481     12489     12492
     12483     12486     12492     12489     12483     12486     12492     12494
     12485     12483     12481     12489     12485     12483     12486     12488
     12485     12483     12486     12492     12486     12483     12481     12489
     12486     12492     12489     12491     12488     12486     12492     12489
     12488     12486     12492     12494     12491     12489     12492     12494
     12496     12501     12503     12505     12496     12501     12503     12506
     12496     12501     12509     12511     12496     12501     12509     12512
     12498     12496     12501     12503     12498     12496     12501     12509
     12499     12496     12501     12503     12499     12496     12501     12509
     12500     12496     12501     12503     12500     12496     12501     12509
     12501     12503     12506     12508     12501     12503     12506     12512
     12501     12509     12512     12506     12501     12509     12512     12514
     12503     12501     12509     12511     12503     12501     12509     12512
     12503     12506     12512     12509     12503     12506     12512     12514
     12505     12503     12501     12509     12505     12503     12506     12508
     12505     12503     12506     12512     12506     12503     12501     12509
     12506     12512     12509     12511     12508     12506     12512     12509
     12508     12506     12512     12514     12511     12509     12512     12514
     12516     12521     12523     12525     12516     12521     12523     12526
     12516     12521     12529     12531     12516     12521     12529     12532
     12518     12516     12521     12523     12518     12516     12521     12529
     12519     12516     12521     12523     12519     12516     12521     12529
     12520     12516     12521     12523     12520     12516     12521     12529
     12521     12523     12526     12528     12521     12523     12526     12532
     12521     12529     12532     12526     12521     12529     12532     12534
     12523     12521     12529     12531     12523     12521     12529     12532
     12523     12526     12532     12529     12523     12526     12532     12534
     12525     12523     12521     12529     12525     12523     12526     12528
     12525     12523     12526     12532     12526     12523     12521     12529
     12526     12532     12529     12531     12528     12526     12532     12529
     12528     12526     12532     12534     12531     12529     12532     12534
     12536     12541     12543     12545     12536     12541     12543     12546
     12536     12541     12549     12551     12536     12541     12549     12552
     12538     12536     12541     12543     12538     12536     12541     12549
     12539     12536     12541     12543     12539     12536     12541     12549
     12540     12536     12541     12543     12540     12536     12541     12549
     12541     12543     12546     12548     12541     12543     12546     12552
     12541     12549     12552     12546     12541     12549     12552     12554
     12543     12541     12549     12551     12543     12541     12549     12552
     12543     12546     12552     12549     12543     12546     12552     12554
     12545     12543     12541     12549     12545     12543     12546     12548
     12545     12543     12546     12552     12546     12543     12541     12549
     12546     12552     12549     12551     12548     12546     12552     12549
     12548     12546     12552     12554     12551     12549     12552     12554
     12556     12561     12563     12565     12556     12561     12563     12566
     12556     12561     12569     12571     12556     12561     12569     12572
     12558     12556     12561     12563     12558     12556     12561     12569
     12559     12556     12561     12563     12559     12556     12561     12569
     12560     12556     12561     12563     12560     12556     12561     12569
     12561     12563     12566     12568     12561     12563     12566     12572
     12561     12569     12572     12566     12561     12569     12572     12574
     12563     12561     12569     12571     12563     12561     12569     12572
     12563     12566     12572     12569     12563     12566     12572     12574
     12565     12563     12561     12569     12565     12563     12566     12568
     12565     12563     12566     12572     12566     12563     12561     12569
     12566     12572     12569     12571     12568     12566     12572     12569
     12568     12566     12572     12574     12571     12569     12572     12574
     12576     12581     12583     12585     12576     12581     12583     12586
     12576     12581     12589     12591     12576     12581     12589     12592
     12578     12576     12581     12583     12578     12576     12581     12589
     12579     12576     12581     12583     12579     12576     12581     12589
     12580     12576     12581     12583     12580     12576     12581     12589
     12581     12583     12586     12588     12581     12583     12586     12592
     12581     12589     12592     12586     12581     12589     12592     12594
     12583     12581     12589     12591     12583     12581     12589     12592
     12583     12586     12592     12589     12583     12586     12592     12594
     12585     12583     12581     12589     12585     12583     12586     12588
     12585     12583     12586     12592     12586     12583     12581     12589
     12586     12592     12589     12591     12588     12586     12592     12589
     12588     12586     12592     12594     12591     12589     12592     12594
     12596     12601     12603     12605     12596     12601     12603     12606
     12596     12601     12609     12611     12596     12601     12609     12612
     12598     12596     12601     12603     12598     12596     12601     12609
     12599     12596     12601     12603     12599     12596     12601     12609
     12600     12596     12601     12603     12600     12596     12601     12609
     12601     12603     12606     12608     12601     12603     12606     12612
     12601     12609     12612     12606     12601     12609     12612     12614
     12603     12601     12609     12611     12603     12601     12609     12612
     12603     12606     12612     12609     12603     12606     12612     12614
     12605     12603     12601     12609     12605     12603     12606     12608
     12605     12603     12606     12612     12606     12603     12601     12609
     12606     12612     12609     12611     12608     12606     12612     12609
     12608     12606     12612     12614     12611     12609     12612     12614
     12616     12621     12623     12625     12616     12621     12623     12626
     12616     12621     12629     12631     12616     12621     12629     12632
     12618     12616     12621     12623     12618     12616     12621     12629
     12619     12616     12621     12623     12619     12616     12621     12629
     12620     12616     12621     12623     12620     12616     12621     12629
     12621     12623     12626     12628     12621     12623     12626     12632
     12621     12629     12632     12626     12621     12629     12632     12634
     12623     12621     12629     12631     12623     12621     12629     12632
     12623     12626     12632     12629     12623     12626     12632     12634
     12625     12623     12621     12629     12625     12623     12626     12628
     12625     12623     12626     12632     12626     12623     12621     12629
     12626     12632     12629     12631     12628     12626     12632     12629
     12628     12626     12632     12634     12631     12629     12632     12634
     12636     12641     12643     12645     12636     12641     12643     12646
     12636     12641     12649     12651     12636     12641     12649     12652
     12638     12636     12641     12643     12638     12636     12641     12649
     12639     12636     12641     12643     12639     12636     12641     12649
     12640     12636     12641     12643     12640     12636     12641     12649
     12641     12643     12646     12648     12641     12643     12646     12652
     12641     12649     12652     12646     12641     12649     12652     12654
     12643     12641     12649     12651     12643     12641     12649     12652
     12643     12646     12652     12649     12643     12646     12652     12654
     12645     12643     12641     12649     12645     12643     12646     12648
     12645     12643     12646     12652     12646     12643     12641     12649
     12646     12652     12649     12651     12648     12646     12652     12649
     12648     12646     12652     12654     12651     12649     12652     12654
     12656     12661     12663     12665     12656     12661     12663     12666
     12656     12661     12669     12671     12656     12661     12669     12672
     12658     12656     12661     12663     12658     12656     12661     12669
     12659     12656     12661     12663     12659     12656     12661     12669
     12660     12656     12661     12663     12660     12656     12661     12669
     12661     12663     12666     12668     12661     12663     12666     12672
     12661     12669     12672     12666     12661     12669     12672     12674
     12663     12661     12669     12671     12663     12661     12669     12672
     12663     12666     12672     12669     12663     12666     12672     12674
     12665     12663     12661     12669     12665     12663     12666     12668
     12665     12663     12666     12672     12666     12663     12661     12669
     12666     12672     12669     12671     12668     12666     12672     12669
     12668     12666     12672     12674     12671     12669     12672     12674
     12676     12681     12683     12685     12676     12681     12683     12686
     12676     12681     12689     12691     12676     12681     12689     12692
     12678     12676     12681     12683     12678     12676     12681     12689
     12679     12676     12681     12683     12679     12676     12681     12689
     12680     12676     12681     12683     12680     12676     12681     12689
     12681     12683     12686     12688     12681     12683     12686     12692
     12681     12689     12692     12686     12681     12689     12692     12694
     12683     12681     12689     12691     12683     12681     12689     12692
     12683     12686     12692     12689     12683     12686     12692     12694
     12685     12683     12681     12689     12685     12683     12686     12688
     12685     12683     12686     12692     12686     12683     12681     12689
     12686     12692     12689     12691     12688     12686     12692     12689
     12688     12686     12692     12694     12691     12689     12692     12694
     12696     12701     12703     12705     12696     12701     12703     12706
     12696     12701     12709     12711     12696     12701     12709     12712
     12698     12696     12701     12703     12698     12696     12701     12709
     12699     12696     12701     12703     12699     12696     12701     12709
     12700     12696     12701     12703     12700     12696     12701     12709
     12701     12703     12706     12708     12701     12703     12706     12712
     12701     12709     12712     12706     12701     12709     12712     12714
     12703     12701     12709     12711     12703     12701     12709     12712
     12703     12706     12712     12709     12703     12706     12712     12714
     12705     12703     12701     12709     12705     12703     12706     12708
     12705     12703     12706     12712     12706     12703     12701     12709
     12706     12712     12709     12711     12708     12706     12712     12709
     12708     12706     12712     12714     12711     12709     12712     12714
     12716     12721     12723     12725     12716     12721     12723     12726
     12716     12721     12729     12731     12716     12721     12729     12732
     12718     12716     12721     12723     12718     12716     12721     12729
     12719     12716     12721     12723     12719     12716     12721     12729
     12720     12716     12721     12723     12720     12716     12721     12729
     12721     12723     12726     12728     12721     12723     12726     12732
     12721     12729     12732     12726     12721     12729     12732     12734
     12723     12721     12729     12731     12723     12721     12729     12732
     12723     12726     12732     12729     12723     12726     12732     12734
     12725     12723     12721     12729     12725     12723     12726     12728
     12725     12723     12726     12732     12726     12723     12721     12729
     12726     12732     12729     12731     12728     12726     12732     12729
     12728     12726     12732     12734     12731     12729     12732     12734
     12736     12741     12743     12745     12736     12741     12743     12746
     12736     12741     12749     12751     12736     12741     12749     12752
     12738     12736     12741     12743     12738     12736     12741     12749
     12739     12736     12741     12743     12739     12736     12741     12749
     12740     12736     12741     12743     12740     12736     12741     12749
     12741     12743     12746     12748     12741     12743     12746     12752
     12741     12749     12752     12746     12741     12749     12752     12754
     12743     12741     12749     12751     12743     12741     12749     12752
     12743     12746     12752     12749     12743     12746     12752     12754
     12745     12743     12741     12749     12745     12743     12746     12748
     12745     12743     12746     12752     12746     12743     12741     12749
     12746     12752     12749     12751     12748     12746     12752     12749
     12748     12746     12752     12754     12751     12749     12752     12754
     12756     12761     12763     12765     12756     12761     12763     12766
     12756     12761     12769     12771     12756     12761     12769     12772
     12758     12756     12761     12763     12758     12756     12761     12769
     12759     12756     12761     12763     12759     12756     12761     12769
     12760     12756     12761     12763     12760     12756     12761     12769
     12761     12763     12766     12768     12761     12763     12766     12772
     12761     12769     12772     12766     12761     12769     12772     12774
     12763     12761     12769     12771     12763     12761     12769     12772
     12763     12766     12772     12769     12763     12766     12772     12774
     12765     12763     12761     12769     12765     12763     12766     12768
     12765     12763     12766     12772     12766     12763     12761     12769
     12766     12772     12769     12771     12768     12766     12772     12769
     12768     12766     12772     12774     12771     12769     12772     12774
     12776     12781     12783     12785     12776     12781     12783     12786
     12776     12781     12789     12791     12776     12781     12789     12792
     12778     12776     12781     12783     12778     12776     12781     12789
     12779     12776     12781     12783     12779     12776     12781     12789
     12780     12776     12781     12783     12780     12776     12781     12789
     12781     12783     12786     12788     12781     12783     12786     12792
     12781     12789     12792     12786     12781     12789     12792     12794
     12783     12781     12789     12791     12783     12781     12789     12792
     12783     12786     12792     12789     12783     12786     12792     12794
     12785     12783     12781     12789     12785     12783     12786     12788
     12785     12783     12786     12792     12786     12783     12781     12789
     12786     12792     12789     12791     12788     12786     12792     12789
     12788     12786     12792     12794     12791     12789     12792     12794
     12796     12801     12803     12805     12796     12801     12803     12806
     12796     12801     12809     12811     12796     12801     12809     12812
     12798     12796     12801     12803     12798     12796     12801     12809
     12799     12796     12801     12803     12799     12796     12801     12809
     12800     12796     12801     12803     12800     12796     12801     12809
     12801     12803     12806     12808     12801     12803     12806     12812
     12801     12809     12812     12806     12801     12809     12812     12814
     12803     12801     12809     12811     12803     12801     12809     12812
     12803     12806     12812     12809     12803     12806     12812     12814
     12805     12803     12801     12809     12805     12803     12806     12808
     12805     12803     12806     12812     12806     12803     12801     12809
     12806     12812     12809     12811     12808     12806     12812     12809
     12808     12806     12812     12814     12811     12809     12812     12814
     12816     12821     12823     12825     12816     12821     12823     12826
     12816     12821     12829     12831     12816     12821     12829     12832
     12818     12816     12821     12823     12818     12816     12821     12829
     12819     12816     12821     12823     12819     12816     12821     12829
     12820     12816     12821     12823     12820     12816     12821     12829
     12821     12823     12826     12828     12821     12823     12826     12832
     12821     12829     12832     12826     12821     12829     12832     12834
     12823     12821     12829     12831     12823     12821     12829     12832
     12823     12826     12832     12829     12823     12826     12832     12834
     12825     12823     12821     12829     12825     12823     12826     12828
     12825     12823     12826     12832     12826     12823     12821     12829
     12826     12832     12829     12831     12828     12826     12832     12829
     12828     12826     12832     12834     12831     12829     12832     12834
     12836     12841     12843     12845     12836     12841     12843     12846
     12836     12841     12849     12851     12836     12841     12849     12852
     12838     12836     12841     12843     12838     12836     12841     12849
     12839     12836     12841     12843     12839     12836     12841     12849
     12840     12836     12841     12843     12840     12836     12841     12849
     12841     12843     12846     12848     12841     12843     12846     12852
     12841     12849     12852     12846     12841     12849     12852     12854
     12843     12841     12849     12851     12843     12841     12849     12852
     12843     12846     12852     12849     12843     12846     12852     12854
     12845     12843     12841     12849     12845     12843     12846     12848
     12845     12843     12846     12852     12846     12843     12841     12849
     12846     12852     12849     12851     12848     12846     12852     12849
     12848     12846     12852     12854     12851     12849     12852     12854
     12856     12861     12863     12865     12856     12861     12863     12866
     12856     12861     12869     12871     12856     12861     12869     12872
     12858     12856     12861     12863     12858     12856     12861     12869
     12859     12856     12861     12863     12859     12856     12861     12869
     12860     12856     12861     12863     12860     12856     12861     12869
     12861     12863     12866     12868     12861     12863     12866     12872
     12861     12869     12872     12866     12861     12869     12872     12874
     12863     12861     12869     12871     12863     12861     12869     12872
     12863     12866     12872     12869     12863     12866     12872     12874
     12865     12863     12861     12869     12865     12863     12866     12868
     12865     12863     12866     12872     12866     12863     12861     12869
     12866     12872     12869     12871     12868     12866     12872     12869
     12868     12866     12872     12874     12871     12869     12872     12874
     12876     12881     12883     12885     12876     12881     12883     12886
     12876     12881     12889     12891     12876     12881     12889     12892
     12878     12876     12881     12883     12878     12876     12881     12889
     12879     12876     12881     12883     12879     12876     12881     12889
     12880     12876     12881     12883     12880     12876     12881     12889
     12881     12883     12886     12888     12881     12883     12886     12892
     12881     12889     12892     12886     12881     12889     12892     12894
     12883     12881     12889     12891     12883     12881     12889     12892
     12883     12886     12892     12889     12883     12886     12892     12894
     12885     12883     12881     12889     12885     12883     12886     12888
     12885     12883     12886     12892     12886     12883     12881     12889
     12886     12892     12889     12891     12888     12886     12892     12889
     12888     12886     12892     12894     12891     12889     12892     12894
     12896     12901     12903     12905     12896     12901     12903     12906
     12896     12901     12909     12911     12896     12901     12909     12912
     12898     12896     12901     12903     12898     12896     12901     12909
     12899     12896     12901     12903     12899     12896     12901     12909
     12900     12896     12901     12903     12900     12896     12901     12909
     12901     12903     12906     12908     12901     12903     12906     12912
     12901     12909     12912     12906     12901     12909     12912     12914
     12903     12901     12909     12911     12903     12901     12909     12912
     12903     12906     12912     12909     12903     12906     12912     12914
     12905     12903     12901     12909     12905     12903     12906     12908
     12905     12903     12906     12912     12906     12903     12901     12909
     12906     12912     12909     12911     12908     12906     12912     12909
     12908     12906     12912     12914     12911     12909     12912     12914
     12916     12921     12923     12925     12916     12921     12923     12926
     12916     12921     12929     12931     12916     12921     12929     12932
     12918     12916     12921     12923     12918     12916     12921     12929
     12919     12916     12921     12923     12919     12916     12921     12929
     12920     12916     12921     12923     12920     12916     12921     12929
     12921     12923     12926     12928     12921     12923     12926     12932
     12921     12929     12932     12926     12921     12929     12932     12934
     12923     12921     12929     12931     12923     12921     12929     12932
     12923     12926     12932     12929     12923     12926     12932     12934
     12925     12923     12921     12929     12925     12923     12926     12928
     12925     12923     12926     12932     12926     12923     12921     12929
     12926     12932     12929     12931     12928     12926     12932     12929
     12928     12926     12932     12934     12931     12929     12932     12934
     12936     12941     12943     12945     12936     12941     12943     12946
     12936     12941     12949     12951     12936     12941     12949     12952
     12938     12936     12941     12943     12938     12936     12941     12949
     12939     12936     12941     12943     12939     12936     12941     12949
     12940     12936     12941     12943     12940     12936     12941     12949
     12941     12943     12946     12948     12941     12943     12946     12952
     12941     12949     12952     12946     12941     12949     12952     12954
     12943     12941     12949     12951     12943     12941     12949     12952
     12943     12946     12952     12949     12943     12946     12952     12954
     12945     12943     12941     12949     12945     12943     12946     12948
     12945     12943     12946     12952     12946     12943     12941     12949
     12946     12952     12949     12951     12948     12946     12952     12949
     12948     12946     12952     12954     12951     12949     12952     12954
     12956     12961     12963     12965     12956     12961     12963     12966
     12956     12961     12969     12971     12956     12961     12969     12972
     12958     12956     12961     12963     12958     12956     12961     12969
     12959     12956     12961     12963     12959     12956     12961     12969
     12960     12956     12961     12963     12960     12956     12961     12969
     12961     12963     12966     12968     12961     12963     12966     12972
     12961     12969     12972     12966     12961     12969     12972     12974
     12963     12961     12969     12971     12963     12961     12969     12972
     12963     12966     12972     12969     12963     12966     12972     12974
     12965     12963     12961     12969     12965     12963     12966     12968
     12965     12963     12966     12972     12966     12963     12961     12969
     12966     12972     12969     12971     12968     12966     12972     12969
     12968     12966     12972     12974     12971     12969     12972     12974
     12976     12981     12983     12985     12976     12981     12983     12986
     12976     12981     12989     12991     12976     12981     12989     12992
     12978     12976     12981     12983     12978     12976     12981     12989
     12979     12976     12981     12983     12979     12976     12981     12989
     12980     12976     12981     12983     12980     12976     12981     12989
     12981     12983     12986     12988     12981     12983     12986     12992
     12981     12989     12992     12986     12981     12989     12992     12994
     12983     12981     12989     12991     12983     12981     12989     12992
     12983     12986     12992     12989     12983     12986     12992     12994
     12985     12983     12981     12989     12985     12983     12986     12988
     12985     12983     12986     12992     12986     12983     12981     12989
     12986     12992     12989     12991     12988     12986     12992     12989
     12988     12986     12992     12994     12991     12989     12992     12994
     12996     13001     13003     13005     12996     13001     13003     13006
     12996     13001     13009     13011     12996     13001     13009     13012
     12998     12996     13001     13003     12998     12996     13001     13009
     12999     12996     13001     13003     12999     12996     13001     13009
     13000     12996     13001     13003     13000     12996     13001     13009
     13001     13003     13006     13008     13001     13003     13006     13012
     13001     13009     13012     13006     13001     13009     13012     13014
     13003     13001     13009     13011     13003     13001     13009     13012
     13003     13006     13012     13009     13003     13006     13012     13014
     13005     13003     13001     13009     13005     13003     13006     13008
     13005     13003     13006     13012     13006     13003     13001     13009
     13006     13012     13009     13011     13008     13006     13012     13009
     13008     13006     13012     13014     13011     13009     13012     13014
     13016     13021     13023     13025     13016     13021     13023     13026
     13016     13021     13029     13031     13016     13021     13029     13032
     13018     13016     13021     13023     13018     13016     13021     13029
     13019     13016     13021     13023     13019     13016     13021     13029
     13020     13016     13021     13023     13020     13016     13021     13029
     13021     13023     13026     13028     13021     13023     13026     13032
     13021     13029     13032     13026     13021     13029     13032     13034
     13023     13021     13029     13031     13023     13021     13029     13032
     13023     13026     13032     13029     13023     13026     13032     13034
     13025     13023     13021     13029     13025     13023     13026     13028
     13025     13023     13026     13032     13026     13023     13021     13029
     13026     13032     13029     13031     13028     13026     13032     13029
     13028     13026     13032     13034     13031     13029     13032     13034
     13036     13041     13043     13045     13036     13041     13043     13046
     13036     13041     13049     13051     13036     13041     13049     13052
     13038     13036     13041     13043     13038     13036     13041     13049
     13039     13036     13041     13043     13039     13036     13041     13049
     13040     13036     13041     13043     13040     13036     13041     13049
     13041     13043     13046     13048     13041     13043     13046     13052
     13041     13049     13052     13046     13041     13049     13052     13054
     13043     13041     13049     13051     13043     13041     13049     13052
     13043     13046     13052     13049     13043     13046     13052     13054
     13045     13043     13041     13049     13045     13043     13046     13048
     13045     13043     13046     13052     13046     13043     13041     13049
     13046     13052     13049     13051     13048     13046     13052     13049
     13048     13046     13052     13054     13051     13049     13052     13054
     13056     13061     13063     13065     13056     13061     13063     13066
     13056     13061     13069     13071     13056     13061     13069     13072
     13058     13056     13061     13063     13058     13056     13061     13069
     13059     13056     13061     13063     13059     13056     13061     13069
     13060     13056     13061     13063     13060     13056     13061     13069
     13061     13063     13066     13068     13061     13063     13066     13072
     13061     13069     13072     13066     13061     13069     13072     13074
     13063     13061     13069     13071     13063     13061     13069     13072
     13063     13066     13072     13069     13063     13066     13072     13074
     13065     13063     13061     13069     13065     13063     13066     13068
     13065     13063     13066     13072     13066     13063     13061     13069
     13066     13072     13069     13071     13068     13066     13072     13069
     13068     13066     13072     13074     13071     13069     13072     13074
     13076     13081     13083     13085     13076     13081     13083     13086
     13076     13081     13089     13091     13076     13081     13089     13092
     13078     13076     13081     13083     13078     13076     13081     13089
     13079     13076     13081     13083     13079     13076     13081     13089
     13080     13076     13081     13083     13080     13076     13081     13089
     13081     13083     13086     13088     13081     13083     13086     13092
     13081     13089     13092     13086     13081     13089     13092     13094
     13083     13081     13089     13091     13083     13081     13089     13092
     13083     13086     13092     13089     13083     13086     13092     13094
     13085     13083     13081     13089     13085     13083     13086     13088
     13085     13083     13086     13092     13086     13083     13081     13089
     13086     13092     13089     13091     13088     13086     13092     13089
     13088     13086     13092     13094     13091     13089     13092     13094
     13096     13101     13103     13105     13096     13101     13103     13106
     13096     13101     13109     13111     13096     13101     13109     13112
     13098     13096     13101     13103     13098     13096     13101     13109
     13099     13096     13101     13103     13099     13096     13101     13109
     13100     13096     13101     13103     13100     13096     13101     13109
     13101     13103     13106     13108     13101     13103     13106     13112
     13101     13109     13112     13106     13101     13109     13112     13114
     13103     13101     13109     13111     13103     13101     13109     13112
     13103     13106     13112     13109     13103     13106     13112     13114
     13105     13103     13101     13109     13105     13103     13106     13108
     13105     13103     13106     13112     13106     13103     13101     13109
     13106     13112     13109     13111     13108     13106     13112     13109
     13108     13106     13112     13114     13111     13109     13112     13114
     13116     13121     13123     13125     13116     13121     13123     13126
     13116     13121     13129     13131     13116     13121     13129     13132
     13118     13116     13121     13123     13118     13116     13121     13129
     13119     13116     13121     13123     13119     13116     13121     13129
     13120     13116     13121     13123     13120     13116     13121     13129
     13121     13123     13126     13128     13121     13123     13126     13132
     13121     13129     13132     13126     13121     13129     13132     13134
     13123     13121     13129     13131     13123     13121     13129     13132
     13123     13126     13132     13129     13123     13126     13132     13134
     13125     13123     13121     13129     13125     13123     13126     13128
     13125     13123     13126     13132     13126     13123     13121     13129
     13126     13132     13129     13131     13128     13126     13132     13129
     13128     13126     13132     13134     13131     13129     13132     13134
     13136     13141     13143     13145     13136     13141     13143     13146
     13136     13141     13149     13151     13136     13141     13149     13152
     13138     13136     13141     13143     13138     13136     13141     13149
     13139     13136     13141     13143     13139     13136     13141     13149
     13140     13136     13141     13143     13140     13136     13141     13149
     13141     13143     13146     13148     13141     13143     13146     13152
     13141     13149     13152     13146     13141     13149     13152     13154
     13143     13141     13149     13151     13143     13141     13149     13152
     13143     13146     13152     13149     13143     13146     13152     13154
     13145     13143     13141     13149     13145     13143     13146     13148
     13145     13143     13146     13152     13146     13143     13141     13149
     13146     13152     13149     13151     13148     13146     13152     13149
     13148     13146     13152     13154     13151     13149     13152     13154
     13156     13161     13163     13165     13156     13161     13163     13166
     13156     13161     13169     13171     13156     13161     13169     13172
     13158     13156     13161     13163     13158     13156     13161     13169
     13159     13156     13161     13163     13159     13156     13161     13169
     13160     13156     13161     13163     13160     13156     13161     13169
     13161     13163     13166     13168     13161     13163     13166     13172
     13161     13169     13172     13166     13161     13169     13172     13174
     13163     13161     13169     13171     13163     13161     13169     13172
     13163     13166     13172     13169     13163     13166     13172     13174
     13165     13163     13161     13169     13165     13163     13166     13168
     13165     13163     13166     13172     13166     13163     13161     13169
     13166     13172     13169     13171     13168     13166     13172     13169
     13168     13166     13172     13174     13171     13169     13172     13174
     13176     13181     13183     13185     13176     13181     13183     13186
     13176     13181     13189     13191     13176     13181     13189     13192
     13178     13176     13181     13183     13178     13176     13181     13189
     13179     13176     13181     13183     13179     13176     13181     13189
     13180     13176     13181     13183     13180     13176     13181     13189
     13181     13183     13186     13188     13181     13183     13186     13192
     13181     13189     13192     13186     13181     13189     13192     13194
     13183     13181     13189     13191     13183     13181     13189     13192
     13183     13186     13192     13189     13183     13186     13192     13194
     13185     13183     13181     13189     13185     13183     13186     13188
     13185     13183     13186     13192     13186     13183     13181     13189
     13186     13192     13189     13191     13188     13186     13192     13189
     13188     13186     13192     13194     13191     13189     13192     13194
     13196     13201     13203     13205     13196     13201     13203     13206
     13196     13201     13209     13211     13196     13201     13209     13212
     13198     13196     13201     13203     13198     13196     13201     13209
     13199     13196     13201     13203     13199     13196     13201     13209
     13200     13196     13201     13203     13200     13196     13201     13209
     13201     13203     13206     13208     13201     13203     13206     13212
     13201     13209     13212     13206     13201     13209     13212     13214
     13203     13201     13209     13211     13203     13201     13209     13212
     13203     13206     13212     13209     13203     13206     13212     13214
     13205     13203     13201     13209     13205     13203     13206     13208
     13205     13203     13206     13212     13206     13203     13201     13209
     13206     13212     13209     13211     13208     13206     13212     13209
     13208     13206     13212     13214     13211     13209     13212     13214
     13216     13221     13223     13225     13216     13221     13223     13226
     13216     13221     13229     13231     13216     13221     13229     13232
     13218     13216     13221     13223     13218     13216     13221     13229
     13219     13216     13221     13223     13219     13216     13221     13229
     13220     13216     13221     13223     13220     13216     13221     13229
     13221     13223     13226     13228     13221     13223     13226     13232
     13221     13229     13232     13226     13221     13229     13232     13234
     13223     13221     13229     13231     13223     13221     13229     13232
     13223     13226     13232     13229     13223     13226     13232     13234
     13225     13223     13221     13229     13225     13223     13226     13228
     13225     13223     13226     13232     13226     13223     13221     13229
     13226     13232     13229     13231     13228     13226     13232     13229
     13228     13226     13232     13234     13231     13229     13232     13234
     13236     13241     13243     13245     13236     13241     13243     13246
     13236     13241     13249     13251     13236     13241     13249     13252
     13238     13236     13241     13243     13238     13236     13241     13249
     13239     13236     13241     13243     13239     13236     13241     13249
     13240     13236     13241     13243     13240     13236     13241     13249
     13241     13243     13246     13248     13241     13243     13246     13252
     13241     13249     13252     13246     13241     13249     13252     13254
     13243     13241     13249     13251     13243     13241     13249     13252
     13243     13246     13252     13249     13243     13246     13252     13254
     13245     13243     13241     13249     13245     13243     13246     13248
     13245     13243     13246     13252     13246     13243     13241     13249
     13246     13252     13249     13251     13248     13246     13252     13249
     13248     13246     13252     13254     13251     13249     13252     13254
     13256     13261     13263     13265     13256     13261     13263     13266
     13256     13261     13269     13271     13256     13261     13269     13272
     13258     13256     13261     13263     13258     13256     13261     13269
     13259     13256     13261     13263     13259     13256     13261     13269
     13260     13256     13261     13263     13260     13256     13261     13269
     13261     13263     13266     13268     13261     13263     13266     13272
     13261     13269     13272     13266     13261     13269     13272     13274
     13263     13261     13269     13271     13263     13261     13269     13272
     13263     13266     13272     13269     13263     13266     13272     13274
     13265     13263     13261     13269     13265     13263     13266     13268
     13265     13263     13266     13272     13266     13263     13261     13269
     13266     13272     13269     13271     13268     13266     13272     13269
     13268     13266     13272     13274     13271     13269     13272     13274
     13276     13281     13283     13285     13276     13281     13283     13286
     13276     13281     13289     13291     13276     13281     13289     13292
     13278     13276     13281     13283     13278     13276     13281     13289
     13279     13276     13281     13283     13279     13276     13281     13289
     13280     13276     13281     13283     13280     13276     13281     13289
     13281     13283     13286     13288     13281     13283     13286     13292
     13281     13289     13292     13286     13281     13289     13292     13294
     13283     13281     13289     13291     13283     13281     13289     13292
     13283     13286     13292     13289     13283     13286     13292     13294
     13285     13283     13281     13289     13285     13283     13286     13288
     13285     13283     13286     13292     13286     13283     13281     13289
     13286     13292     13289     13291     13288     13286     13292     13289
     13288     13286     13292     13294     13291     13289     13292     13294
     13296     13301     13303     13305     13296     13301     13303     13306
     13296     13301     13309     13311     13296     13301     13309     13312
     13298     13296     13301     13303     13298     13296     13301     13309
     13299     13296     13301     13303     13299     13296     13301     13309
     13300     13296     13301     13303     13300     13296     13301     13309
     13301     13303     13306     13308     13301     13303     13306     13312
     13301     13309     13312     13306     13301     13309     13312     13314
     13303     13301     13309     13311     13303     13301     13309     13312
     13303     13306     13312     13309     13303     13306     13312     13314
     13305     13303     13301     13309     13305     13303     13306     13308
     13305     13303     13306     13312     13306     13303     13301     13309
     13306     13312     13309     13311     13308     13306     13312     13309
     13308     13306     13312     13314     13311     13309     13312     13314
     13316     13321     13323     13325     13316     13321     13323     13326
     13316     13321     13329     13331     13316     13321     13329     13332
     13318     13316     13321     13323     13318     13316     13321     13329
     13319     13316     13321     13323     13319     13316     13321     13329
     13320     13316     13321     13323     13320     13316     13321     13329
     13321     13323     13326     13328     13321     13323     13326     13332
     13321     13329     13332     13326     13321     13329     13332     13334
     13323     13321     13329     13331     13323     13321     13329     13332
     13323     13326     13332     13329     13323     13326     13332     13334
     13325     13323     13321     13329     13325     13323     13326     13328
     13325     13323     13326     13332     13326     13323     13321     13329
     13326     13332     13329     13331     13328     13326     13332     13329
     13328     13326     13332     13334     13331     13329     13332     13334
     13336     13341     13343     13345     13336     13341     13343     13346
     13336     13341     13349     13351     13336     13341     13349     13352
     13338     13336     13341     13343     13338     13336     13341     13349
     13339     13336     13341     13343     13339     13336     13341     13349
     13340     13336     13341     13343     13340     13336     13341     13349
     13341     13343     13346     13348     13341     13343     13346     13352
     13341     13349     13352     13346     13341     13349     13352     13354
     13343     13341     13349     13351     13343     13341     13349     13352
     13343     13346     13352     13349     13343     13346     13352     13354
     13345     13343     13341     13349     13345     13343     13346     13348
     13345     13343     13346     13352     13346     13343     13341     13349
     13346     13352     13349     13351     13348     13346     13352     13349
     13348     13346     13352     13354     13351     13349     13352     13354
     13356     13361     13363     13365     13356     13361     13363     13366
     13356     13361     13369     13371     13356     13361     13369     13372
     13358     13356     13361     13363     13358     13356     13361     13369
     13359     13356     13361     13363     13359     13356     13361     13369
     13360     13356     13361     13363     13360     13356     13361     13369
     13361     13363     13366     13368     13361     13363     13366     13372
     13361     13369     13372     13366     13361     13369     13372     13374
     13363     13361     13369     13371     13363     13361     13369     13372
     13363     13366     13372     13369     13363     13366     13372     13374
     13365     13363     13361     13369     13365     13363     13366     13368
     13365     13363     13366     13372     13366     13363     13361     13369
     13366     13372     13369     13371     13368     13366     13372     13369
     13368     13366     13372     13374     13371     13369     13372     13374
     13376     13378     13380     13382     13376     13378     13380     13393
     13376     13378     13380     13394     13378     13380     13382     13384
     13378     13380     13382     13386     13380     13378     13376     13388
     13380     13378     13376     13389     13380     13378     13376     13390
     13380     13382     13384     13396     13380     13382     13386     13395
     13382     13380     13378     13391     13382     13380     13378     13392
     13384     13382     13380     13393     13384     13382     13380     13394
     13384     13382     13386     13395     13386     13382     13380     13393
     13386     13382     13380     13394     13386     13382     13384     13396
     13388     13376     13378     13391     13388     13376     13378     13392
     13389     13376     13378     13391     13389     13376     13378     13392
     13390     13376     13378     13391     13390     13376     13378     13392
     13391     13378     13380     13393     13391     13378     13380     13394
     13392     13378     13380     13393     13392     13378     13380     13394
     13401     13403     13405     13407     13401     13403     13405     13418
     13401     13403     13405     13419     13403     13405     13407     13409
     13403     13405     13407     13411     13405     13403     13401     13413
     13405     13403     13401     13414     13405     13403     13401     13415
     13405     13407     13409     13421     13405     13407     13411     13420
     13407     13405     13403     13416     13407     13405     13403     13417
     13409     13407     13405     13418     13409     13407     13405     13419
     13409     13407     13411     13420     13411     13407     13405     13418
     13411     13407     13405     13419     13411     13407     13409     13421
     13413     13401     13403     13416     13413     13401     13403     13417
     13414     13401     13403     13416     13414     13401     13403     13417
     13415     13401     13403     13416     13415     13401     13403     13417
     13416     13403     13405     13418     13416     13403     13405     13419
     13417     13403     13405     13418     13417     13403     13405     13419
     13426     13428     13430     13432     13426     13428     13430     13443
     13426     13428     13430     13444     13428     13430     13432     13434
     13428     13430     13432     13436     13430     13428     13426     13438
     13430     13428     13426     13439     13430     13428     13426     13440
     13430     13432     13434     13446     13430     13432     13436     13445
     13432     13430     13428     13441     13432     13430     13428     13442
     13434     13432     13430     13443     13434     13432     13430     13444
     13434     13432     13436     13445     13436     13432     13430     13443
     13436     13432     13430     13444     13436     13432     13434     13446
     13438     13426     13428     13441     13438     13426     13428     13442
     13439     13426     13428     13441     13439     13426     13428     13442
     13440     13426     13428     13441     13440     13426     13428     13442
     13441     13428     13430     13443     13441     13428     13430     13444
     13442     13428     13430     13443     13442     13428     13430     13444
     13451     13453     13455     13457     13451     13453     13455     13468
     13451     13453     13455     13469     13453     13455     13457     13459
     13453     13455     13457     13461     13455     13453     13451     13463
     13455     13453     13451     13464     13455     13453     13451     13465
     13455     13457     13459     13471     13455     13457     13461     13470
     13457     13455     13453     13466     13457     13455     13453     13467
     13459     13457     13455     13468     13459     13457     13455     13469
     13459     13457     13461     13470     13461     13457     13455     13468
     13461     13457     13455     13469     13461     13457     13459     13471
     13463     13451     13453     13466     13463     13451     13453     13467
     13464     13451     13453     13466     13464     13451     13453     13467
     13465     13451     13453     13466     13465     13451     13453     13467
     13466     13453     13455     13468     13466     13453     13455     13469
     13467     13453     13455     13468     13467     13453     13455     13469
     13476     13478     13480     13482     13476     13478     13480     13493
     13476     13478     13480     13494     13478     13480     13482     13484
     13478     13480     13482     13486     13480     13478     13476     13488
     13480     13478     13476     13489     13480     13478     13476     13490
     13480     13482     13484     13496     13480     13482     13486     13495
     13482     13480     13478     13491     13482     13480     13478     13492
     13484     13482     13480     13493     13484     13482     13480     13494
     13484     13482     13486     13495     13486     13482     13480     13493
     13486     13482     13480     13494     13486     13482     13484     13496
     13488     13476     13478     13491     13488     13476     13478     13492
     13489     13476     13478     13491     13489     13476     13478     13492
     13490     13476     13478     13491     13490     13476     13478     13492
     13491     13478     13480     13493     13491     13478     13480     13494
     13492     13478     13480     13493     13492     13478     13480     13494
     13501     13503     13505     13507     13501     13503     13505     13518
     13501     13503     13505     13519     13503     13505     13507     13509
     13503     13505     13507     13511     13505     13503     13501     13513
     13505     13503     13501     13514     13505     13503     13501     13515
     13505     13507     13509     13521     13505     13507     13511     13520
     13507     13505     13503     13516     13507     13505     13503     13517
     13509     13507     13505     13518     13509     13507     13505     13519
     13509     13507     13511     13520     13511     13507     13505     13518
     13511     13507     13505     13519     13511     13507     13509     13521
     13513     13501     13503     13516     13513     13501     13503     13517
     13514     13501     13503     13516     13514     13501     13503     13517
     13515     13501     13503     13516     13515     13501     13503     13517
     13516     13503     13505     13518     13516     13503     13505     13519
     13517     13503     13505     13518     13517     13503     13505     13519
     13526     13528     13530     13532     13526     13528     13530     13543
     13526     13528     13530     13544     13528     13530     13532     13534
     13528     13530     13532     13536     13530     13528     13526     13538
     13530     13528     13526     13539     13530     13528     13526     13540
     13530     13532     13534     13546     13530     13532     13536     13545
     13532     13530     13528     13541     13532     13530     13528     13542
     13534     13532     13530     13543     13534     13532     13530     13544
     13534     13532     13536     13545     13536     13532     13530     13543
     13536     13532     13530     13544     13536     13532     13534     13546
     13538     13526     13528     13541     13538     13526     13528     13542
     13539     13526     13528     13541     13539     13526     13528     13542
     13540     13526     13528     13541     13540     13526     13528     13542
     13541     13528     13530     13543     13541     13528     13530     13544
     13542     13528     13530     13543     13542     13528     13530     13544
     13551     13553     13555     13557     13551     13553     13555     13568
     13551     13553     13555     13569     13553     13555     13557     13559
     13553     13555     13557     13561     13555     13553     13551     13563
     13555     13553     13551     13564     13555     13553     13551     13565
     13555     13557     13559     13571     13555     13557     13561     13570
     13557     13555     13553     13566     13557     13555     13553     13567
     13559     13557     13555     13568     13559     13557     13555     13569
     13559     13557     13561     13570     13561     13557     13555     13568
     13561     13557     13555     13569     13561     13557     13559     13571
     13563     13551     13553     13566     13563     13551     13553     13567
     13564     13551     13553     13566     13564     13551     13553     13567
     13565     13551     13553     13566     13565     13551     13553     13567
     13566     13553     13555     13568     13566     13553     13555     13569
     13567     13553     13555     13568     13567     13553     13555     13569
     13576     13578     13580     13582     13576     13578     13580     13593
     13576     13578     13580     13594     13578     13580     13582     13584
     13578     13580     13582     13586     13580     13578     13576     13588
     13580     13578     13576     13589     13580     13578     13576     13590
     13580     13582     13584     13596     13580     13582     13586     13595
     13582     13580     13578     13591     13582     13580     13578     13592
     13584     13582     13580     13593     13584     13582     13580     13594
     13584     13582     13586     13595     13586     13582     13580     13593
     13586     13582     13580     13594     13586     13582     13584     13596
     13588     13576     13578     13591     13588     13576     13578     13592
     13589     13576     13578     13591     13589     13576     13578     13592
     13590     13576     13578     13591     13590     13576     13578     13592
     13591     13578     13580     13593     13591     13578     13580     13594
     13592     13578     13580     13593     13592     13578     13580     13594
     13601     13603     13605     13607     13601     13603     13605     13618
     13601     13603     13605     13619     13603     13605     13607     13609
     13603     13605     13607     13611     13605     13603     13601     13613
     13605     13603     13601     13614     13605     13603     13601     13615
     13605     13607     13609     13621     13605     13607     13611     13620
     13607     13605     13603     13616     13607     13605     13603     13617
     13609     13607     13605     13618     13609     13607     13605     13619
     13609     13607     13611     13620     13611     13607     13605     13618
     13611     13607     13605     13619     13611     13607     13609     13621
     13613     13601     13603     13616     13613     13601     13603     13617
     13614     13601     13603     13616     13614     13601     13603     13617
     13615     13601     13603     13616     13615     13601     13603     13617
     13616     13603     13605     13618     13616     13603     13605     13619
     13617     13603     13605     13618     13617     13603     13605     13619
     13626     13628     13630     13632     13626     13628     13630     13643
     13626     13628     13630     13644     13628     13630     13632     13634
     13628     13630     13632     13636     13630     13628     13626     13638
     13630     13628     13626     13639     13630     13628     13626     13640
     13630     13632     13634     13646     13630     13632     13636     13645
     13632     13630     13628     13641     13632     13630     13628     13642
     13634     13632     13630     13643     13634     13632     13630     13644
     13634     13632     13636     13645     13636     13632     13630     13643
     13636     13632     13630     13644     13636     13632     13634     13646
     13638     13626     13628     13641     13638     13626     13628     13642
     13639     13626     13628     13641     13639     13626     13628     13642
     13640     13626     13628     13641     13640     13626     13628     13642
     13641     13628     13630     13643     13641     13628     13630     13644
     13642     13628     13630     13643     13642     13628     13630     13644
     13651     13653     13655     13657     13651     13653     13655     13668
     13651     13653     13655     13669     13653     13655     13657     13659
     13653     13655     13657     13661     13655     13653     13651     13663
     13655     13653     13651     13664     13655     13653     13651     13665
     13655     13657     13659     13671     13655     13657     13661     13670
     13657     13655     13653     13666     13657     13655     13653     13667
     13659     13657     13655     13668     13659     13657     13655     13669
     13659     13657     13661     13670     13661     13657     13655     13668
     13661     13657     13655     13669     13661     13657     13659     13671
     13663     13651     13653     13666     13663     13651     13653     13667
     13664     13651     13653     13666     13664     13651     13653     13667
     13665     13651     13653     13666     13665     13651     13653     13667
     13666     13653     13655     13668     13666     13653     13655     13669
     13667     13653     13655     13668     13667     13653     13655     13669
     13676     13678     13680     13682     13676     13678     13680     13693
     13676     13678     13680     13694     13678     13680     13682     13684
     13678     13680     13682     13686     13680     13678     13676     13688
     13680     13678     13676     13689     13680     13678     13676     13690
     13680     13682     13684     13696     13680     13682     13686     13695
     13682     13680     13678     13691     13682     13680     13678     13692
     13684     13682     13680     13693     13684     13682     13680     13694
     13684     13682     13686     13695     13686     13682     13680     13693
     13686     13682     13680     13694     13686     13682     13684     13696
     13688     13676     13678     13691     13688     13676     13678     13692
     13689     13676     13678     13691     13689     13676     13678     13692
     13690     13676     13678     13691     13690     13676     13678     13692
     13691     13678     13680     13693     13691     13678     13680     13694
     13692     13678     13680     13693     13692     13678     13680     13694
     13701     13703     13705     13707     13701     13703     13705     13718
     13701     13703     13705     13719     13703     13705     13707     13709
     13703     13705     13707     13711     13705     13703     13701     13713
     13705     13703     13701     13714     13705     13703     13701     13715
     13705     13707     13709     13721     13705     13707     13711     13720
     13707     13705     13703     13716     13707     13705     13703     13717
     13709     13707     13705     13718     13709     13707     13705     13719
     13709     13707     13711     13720     13711     13707     13705     13718
     13711     13707     13705     13719     13711     13707     13709     13721
     13713     13701     13703     13716     13713     13701     13703     13717
     13714     13701     13703     13716     13714     13701     13703     13717
     13715     13701     13703     13716     13715     13701     13703     13717
     13716     13703     13705     13718     13716     13703     13705     13719
     13717     13703     13705     13718     13717     13703     13705     13719
     13726     13728     13730     13732     13726     13728     13730     13743
     13726     13728     13730     13744     13728     13730     13732     13734
     13728     13730     13732     13736     13730     13728     13726     13738
     13730     13728     13726     13739     13730     13728     13726     13740
     13730     13732     13734     13746     13730     13732     13736     13745
     13732     13730     13728     13741     13732     13730     13728     13742
     13734     13732     13730     13743     13734     13732     13730     13744
     13734     13732     13736     13745     13736     13732     13730     13743
     13736     13732     13730     13744     13736     13732     13734     13746
     13738     13726     13728     13741     13738     13726     13728     13742
     13739     13726     13728     13741     13739     13726     13728     13742
     13740     13726     13728     13741     13740     13726     13728     13742
     13741     13728     13730     13743     13741     13728     13730     13744
     13742     13728     13730     13743     13742     13728     13730     13744
     13751     13753     13755     13757     13751     13753     13755     13768
     13751     13753     13755     13769     13753     13755     13757     13759
     13753     13755     13757     13761     13755     13753     13751     13763
     13755     13753     13751     13764     13755     13753     13751     13765
     13755     13757     13759     13771     13755     13757     13761     13770
     13757     13755     13753     13766     13757     13755     13753     13767
     13759     13757     13755     13768     13759     13757     13755     13769
     13759     13757     13761     13770     13761     13757     13755     13768
     13761     13757     13755     13769     13761     13757     13759     13771
     13763     13751     13753     13766     13763     13751     13753     13767
     13764     13751     13753     13766     13764     13751     13753     13767
     13765     13751     13753     13766     13765     13751     13753     13767
     13766     13753     13755     13768     13766     13753     13755     13769
     13767     13753     13755     13768     13767     13753     13755     13769
     13776     13778     13780     13782     13776     13778     13780     13793
     13776     13778     13780     13794     13778     13780     13782     13784
     13778     13780     13782     13786     13780     13778     13776     13788
     13780     13778     13776     13789     13780     13778     13776     13790
     13780     13782     13784     13796     13780     13782     13786     13795
     13782     13780     13778     13791     13782     13780     13778     13792
     13784     13782     13780     13793     13784     13782     13780     13794
     13784     13782     13786     13795     13786     13782     13780     13793
     13786     13782     13780     13794     13786     13782     13784     13796
     13788     13776     13778     13791     13788     13776     13778     13792
     13789     13776     13778     13791     13789     13776     13778     13792
     13790     13776     13778     13791     13790     13776     13778     13792
     13791     13778     13780     13793     13791     13778     13780     13794
     13792     13778     13780     13793     13792     13778     13780     13794
     13801     13803     13805     13807     13801     13803     13805     13818
     13801     13803     13805     13819     13803     13805     13807     13809
     13803     13805     13807     13811     13805     13803     13801     13813
     13805     13803     13801     13814     13805     13803     13801     13815
     13805     13807     13809     13821     13805     13807     13811     13820
     13807     13805     13803     13816     13807     13805     13803     13817
     13809     13807     13805     13818     13809     13807     13805     13819
     13809     13807     13811     13820     13811     13807     13805     13818
     13811     13807     13805     13819     13811     13807     13809     13821
     13813     13801     13803     13816     13813     13801     13803     13817
     13814     13801     13803     13816     13814     13801     13803     13817
     13815     13801     13803     13816     13815     13801     13803     13817
     13816     13803     13805     13818     13816     13803     13805     13819
     13817     13803     13805     13818     13817     13803     13805     13819
     13826     13828     13830     13832     13826     13828     13830     13843
     13826     13828     13830     13844     13828     13830     13832     13834
     13828     13830     13832     13836     13830     13828     13826     13838
     13830     13828     13826     13839     13830     13828     13826     13840
     13830     13832     13834     13846     13830     13832     13836     13845
     13832     13830     13828     13841     13832     13830     13828     13842
     13834     13832     13830     13843     13834     13832     13830     13844
     13834     13832     13836     13845     13836     13832     13830     13843
     13836     13832     13830     13844     13836     13832     13834     13846
     13838     13826     13828     13841     13838     13826     13828     13842
     13839     13826     13828     13841     13839     13826     13828     13842
     13840     13826     13828     13841     13840     13826     13828     13842
     13841     13828     13830     13843     13841     13828     13830     13844
     13842     13828     13830     13843     13842     13828     13830     13844
     13851     13853     13855     13857     13851     13853     13855     13868
     13851     13853     13855     13869     13853     13855     13857     13859
     13853     13855     13857     13861     13855     13853     13851     13863
     13855     13853     13851     13864     13855     13853     13851     13865
     13855     13857     13859     13871     13855     13857     13861     13870
     13857     13855     13853     13866     13857     13855     13853     13867
     13859     13857     13855     13868     13859     13857     13855     13869
     13859     13857     13861     13870     13861     13857     13855     13868
     13861     13857     13855     13869     13861     13857     13859     13871
     13863     13851     13853     13866     13863     13851     13853     13867
     13864     13851     13853     13866     13864     13851     13853     13867
     13865     13851     13853     13866     13865     13851     13853     13867
     13866     13853     13855     13868     13866     13853     13855     13869
     13867     13853     13855     13868     13867     13853     13855     13869
     13876     13878     13880     13882     13876     13878     13880     13893
     13876     13878     13880     13894     13878     13880     13882     13884
     13878     13880     13882     13886     13880     13878     13876     13888
     13880     13878     13876     13889     13880     13878     13876     13890
     13880     13882     13884     13896     13880     13882     13886     13895
     13882     13880     13878     13891     13882     13880     13878     13892
     13884     13882     13880     13893     13884     13882     13880     13894
     13884     13882     13886     13895     13886     13882     13880     13893
     13886     13882     13880     13894     13886     13882     13884     13896
     13888     13876     13878     13891     13888     13876     13878     13892
     13889     13876     13878     13891     13889     13876     13878     13892
     13890     13876     13878     13891     13890     13876     13878     13892
     13891     13878     13880     13893     13891     13878     13880     13894
     13892     13878     13880     13893     13892     13878     13880     13894
     13901     13903     13905     13907     13901     13903     13905     13918
     13901     13903     13905     13919     13903     13905     13907     13909
     13903     13905     13907     13911     13905     13903     13901     13913
     13905     13903     13901     13914     13905     13903     13901     13915
     13905     13907     13909     13921     13905     13907     13911     13920
     13907     13905     13903     13916     13907     13905     13903     13917
     13909     13907     13905     13918     13909     13907     13905     13919
     13909     13907     13911     13920     13911     13907     13905     13918
     13911     13907     13905     13919     13911     13907     13909     13921
     13913     13901     13903     13916     13913     13901     13903     13917
     13914     13901     13903     13916     13914     13901     13903     13917
     13915     13901     13903     13916     13915     13901     13903     13917
     13916     13903     13905     13918     13916     13903     13905     13919
     13917     13903     13905     13918     13917     13903     13905     13919
     13926     13928     13930     13932     13926     13928     13930     13943
     13926     13928     13930     13944     13928     13930     13932     13934
     13928     13930     13932     13936     13930     13928     13926     13938
     13930     13928     13926     13939     13930     13928     13926     13940
     13930     13932     13934     13946     13930     13932     13936     13945
     13932     13930     13928     13941     13932     13930     13928     13942
     13934     13932     13930     13943     13934     13932     13930     13944
     13934     13932     13936     13945     13936     13932     13930     13943
     13936     13932     13930     13944     13936     13932     13934     13946
     13938     13926     13928     13941     13938     13926     13928     13942
     13939     13926     13928     13941     13939     13926     13928     13942
     13940     13926     13928     13941     13940     13926     13928     13942
     13941     13928     13930     13943     13941     13928     13930     13944
     13942     13928     13930     13943     13942     13928     13930     13944
     13951     13953     13955     13957     13951     13953     13955     13968
     13951     13953     13955     13969     13953     13955     13957     13959
     13953     13955     13957     13961     13955     13953     13951     13963
     13955     13953     13951     13964     13955     13953     13951     13965
     13955     13957     13959     13971     13955     13957     13961     13970
     13957     13955     13953     13966     13957     13955     13953     13967
     13959     13957     13955     13968     13959     13957     13955     13969
     13959     13957     13961     13970     13961     13957     13955     13968
     13961     13957     13955     13969     13961     13957     13959     13971
     13963     13951     13953     13966     13963     13951     13953     13967
     13964     13951     13953     13966     13964     13951     13953     13967
     13965     13951     13953     13966     13965     13951     13953     13967
     13966     13953     13955     13968     13966     13953     13955     13969
     13967     13953     13955     13968     13967     13953     13955     13969
     13976     13978     13980     13982     13976     13978     13980     13993
     13976     13978     13980     13994     13978     13980     13982     13984
     13978     13980     13982     13986     13980     13978     13976     13988
     13980     13978     13976     13989     13980     13978     13976     13990
     13980     13982     13984     13996     13980     13982     13986     13995
     13982     13980     13978     13991     13982     13980     13978     13992
     13984     13982     13980     13993     13984     13982     13980     13994
     13984     13982     13986     13995     13986     13982     13980     13993
     13986     13982     13980     13994     13986     13982     13984     13996
     13988     13976     13978     13991     13988     13976     13978     13992
     13989     13976     13978     13991     13989     13976     13978     13992
     13990     13976     13978     13991     13990     13976     13978     13992
     13991     13978     13980     13993     13991     13978     13980     13994
     13992     13978     13980     13993     13992     13978     13980     13994
     14001     14003     14005     14007     14001     14003     14005     14018
     14001     14003     14005     14019     14003     14005     14007     14009
     14003     14005     14007     14011     14005     14003     14001     14013
     14005     14003     14001     14014     14005     14003     14001     14015
     14005     14007     14009     14021     14005     14007     14011     14020
     14007     14005     14003     14016     14007     14005     14003     14017
     14009     14007     14005     14018     14009     14007     14005     14019
     14009     14007     14011     14020     14011     14007     14005     14018
     14011     14007     14005     14019     14011     14007     14009     14021
     14013     14001     14003     14016     14013     14001     14003     14017
     14014     14001     14003     14016     14014     14001     14003     14017
     14015     14001     14003     14016     14015     14001     14003     14017
     14016     14003     14005     14018     14016     14003     14005     14019
     14017     14003     14005     14018     14017     14003     14005     14019
     14026     14028     14030     14032     14026     14028     14030     14043
     14026     14028     14030     14044     14028     14030     14032     14034
     14028     14030     14032     14036     14030     14028     14026     14038
     14030     14028     14026     14039     14030     14028     14026     14040
     14030     14032     14034     14046     14030     14032     14036     14045
     14032     14030     14028     14041     14032     14030     14028     14042
     14034     14032     14030     14043     14034     14032     14030     14044
     14034     14032     14036     14045     14036     14032     14030     14043
     14036     14032     14030     14044     14036     14032     14034     14046
     14038     14026     14028     14041     14038     14026     14028     14042
     14039     14026     14028     14041     14039     14026     14028     14042
     14040     14026     14028     14041     14040     14026     14028     14042
     14041     14028     14030     14043     14041     14028     14030     14044
     14042     14028     14030     14043     14042     14028     14030     14044
     14051     14053     14055     14057     14051     14053     14055     14068
     14051     14053     14055     14069     14053     14055     14057     14059
     14053     14055     14057     14061     14055     14053     14051     14063
     14055     14053     14051     14064     14055     14053     14051     14065
     14055     14057     14059     14071     14055     14057     14061     14070
     14057     14055     14053     14066     14057     14055     14053     14067
     14059     14057     14055     14068     14059     14057     14055     14069
     14059     14057     14061     14070     14061     14057     14055     14068
     14061     14057     14055     14069     14061     14057     14059     14071
     14063     14051     14053     14066     14063     14051     14053     14067
     14064     14051     14053     14066     14064     14051     14053     14067
     14065     14051     14053     14066     14065     14051     14053     14067
     14066     14053     14055     14068     14066     14053     14055     14069
     14067     14053     14055     14068     14067     14053     14055     14069
     14076     14078     14080     14082     14076     14078     14080     14093
     14076     14078     14080     14094     14078     14080     14082     14084
     14078     14080     14082     14086     14080     14078     14076     14088
     14080     14078     14076     14089     14080     14078     14076     14090
     14080     14082     14084     14096     14080     14082     14086     14095
     14082     14080     14078     14091     14082     14080     14078     14092
     14084     14082     14080     14093     14084     14082     14080     14094
     14084     14082     14086     14095     14086     14082     14080     14093
     14086     14082     14080     14094     14086     14082     14084     14096
     14088     14076     14078     14091     14088     14076     14078     14092
     14089     14076     14078     14091     14089     14076     14078     14092
     14090     14076     14078     14091     14090     14076     14078     14092
     14091     14078     14080     14093     14091     14078     14080     14094
     14092     14078     14080     14093     14092     14078     14080     14094
     14101     14103     14105     14107     14101     14103     14105     14118
     14101     14103     14105     14119     14103     14105     14107     14109
     14103     14105     14107     14111     14105     14103     14101     14113
     14105     14103     14101     14114     14105     14103     14101     14115
     14105     14107     14109     14121     14105     14107     14111     14120
     14107     14105     14103     14116     14107     14105     14103     14117
     14109     14107     14105     14118     14109     14107     14105     14119
     14109     14107     14111     14120     14111     14107     14105     14118
     14111     14107     14105     14119     14111     14107     14109     14121
     14113     14101     14103     14116     14113     14101     14103     14117
     14114     14101     14103     14116     14114     14101     14103     14117
     14115     14101     14103     14116     14115     14101     14103     14117
     14116     14103     14105     14118     14116     14103     14105     14119
     14117     14103     14105     14118     14117     14103     14105     14119
     14126     14128     14130     14132     14126     14128     14130     14143
     14126     14128     14130     14144     14128     14130     14132     14134
     14128     14130     14132     14136     14130     14128     14126     14138
     14130     14128     14126     14139     14130     14128     14126     14140
     14130     14132     14134     14146     14130     14132     14136     14145
     14132     14130     14128     14141     14132     14130     14128     14142
     14134     14132     14130     14143     14134     14132     14130     14144
     14134     14132     14136     14145     14136     14132     14130     14143
     14136     14132     14130     14144     14136     14132     14134     14146
     14138     14126     14128     14141     14138     14126     14128     14142
     14139     14126     14128     14141     14139     14126     14128     14142
     14140     14126     14128     14141     14140     14126     14128     14142
     14141     14128     14130     14143     14141     14128     14130     14144
     14142     14128     14130     14143     14142     14128     14130     14144
     14151     14153     14155     14157     14151     14153     14155     14168
     14151     14153     14155     14169     14153     14155     14157     14159
     14153     14155     14157     14161     14155     14153     14151     14163
     14155     14153     14151     14164     14155     14153     14151     14165
     14155     14157     14159     14171     14155     14157     14161     14170
     14157     14155     14153     14166     14157     14155     14153     14167
     14159     14157     14155     14168     14159     14157     14155     14169
     14159     14157     14161     14170     14161     14157     14155     14168
     14161     14157     14155     14169     14161     14157     14159     14171
     14163     14151     14153     14166     14163     14151     14153     14167
     14164     14151     14153     14166     14164     14151     14153     14167
     14165     14151     14153     14166     14165     14151     14153     14167
     14166     14153     14155     14168     14166     14153     14155     14169
     14167     14153     14155     14168     14167     14153     14155     14169
     14176     14178     14180     14182     14176     14178     14180     14193
     14176     14178     14180     14194     14178     14180     14182     14184
     14178     14180     14182     14186     14180     14178     14176     14188
     14180     14178     14176     14189     14180     14178     14176     14190
     14180     14182     14184     14196     14180     14182     14186     14195
     14182     14180     14178     14191     14182     14180     14178     14192
     14184     14182     14180     14193     14184     14182     14180     14194
     14184     14182     14186     14195     14186     14182     14180     14193
     14186     14182     14180     14194     14186     14182     14184     14196
     14188     14176     14178     14191     14188     14176     14178     14192
     14189     14176     14178     14191     14189     14176     14178     14192
     14190     14176     14178     14191     14190     14176     14178     14192
     14191     14178     14180     14193     14191     14178     14180     14194
     14192     14178     14180     14193     14192     14178     14180     14194
     14201     14203     14205     14207     14201     14203     14205     14218
     14201     14203     14205     14219     14203     14205     14207     14209
     14203     14205     14207     14211     14205     14203     14201     14213
     14205     14203     14201     14214     14205     14203     14201     14215
     14205     14207     14209     14221     14205     14207     14211     14220
     14207     14205     14203     14216     14207     14205     14203     14217
     14209     14207     14205     14218     14209     14207     14205     14219
     14209     14207     14211     14220     14211     14207     14205     14218
     14211     14207     14205     14219     14211     14207     14209     14221
     14213     14201     14203     14216     14213     14201     14203     14217
     14214     14201     14203     14216     14214     14201     14203     14217
     14215     14201     14203     14216     14215     14201     14203     14217
     14216     14203     14205     14218     14216     14203     14205     14219
     14217     14203     14205     14218     14217     14203     14205     14219
     14226     14228     14230     14232     14226     14228     14230     14243
     14226     14228     14230     14244     14228     14230     14232     14234
     14228     14230     14232     14236     14230     14228     14226     14238
     14230     14228     14226     14239     14230     14228     14226     14240
     14230     14232     14234     14246     14230     14232     14236     14245
     14232     14230     14228     14241     14232     14230     14228     14242
     14234     14232     14230     14243     14234     14232     14230     14244
     14234     14232     14236     14245     14236     14232     14230     14243
     14236     14232     14230     14244     14236     14232     14234     14246
     14238     14226     14228     14241     14238     14226     14228     14242
     14239     14226     14228     14241     14239     14226     14228     14242
     14240     14226     14228     14241     14240     14226     14228     14242
     14241     14228     14230     14243     14241     14228     14230     14244
     14242     14228     14230     14243     14242     14228     14230     14244
     14251     14253     14255     14257     14251     14253     14255     14268
     14251     14253     14255     14269     14253     14255     14257     14259
     14253     14255     14257     14261     14255     14253     14251     14263
     14255     14253     14251     14264     14255     14253     14251     14265
     14255     14257     14259     14271     14255     14257     14261     14270
     14257     14255     14253     14266     14257     14255     14253     14267
     14259     14257     14255     14268     14259     14257     14255     14269
     14259     14257     14261     14270     14261     14257     14255     14268
     14261     14257     14255     14269     14261     14257     14259     14271
     14263     14251     14253     14266     14263     14251     14253     14267
     14264     14251     14253     14266     14264     14251     14253     14267
     14265     14251     14253     14266     14265     14251     14253     14267
     14266     14253     14255     14268     14266     14253     14255     14269
     14267     14253     14255     14268     14267     14253     14255     14269
     14276     14278     14280     14282     14276     14278     14280     14293
     14276     14278     14280     14294     14278     14280     14282     14284
     14278     14280     14282     14286     14280     14278     14276     14288
     14280     14278     14276     14289     14280     14278     14276     14290
     14280     14282     14284     14296     14280     14282     14286     14295
     14282     14280     14278     14291     14282     14280     14278     14292
     14284     14282     14280     14293     14284     14282     14280     14294
     14284     14282     14286     14295     14286     14282     14280     14293
     14286     14282     14280     14294     14286     14282     14284     14296
     14288     14276     14278     14291     14288     14276     14278     14292
     14289     14276     14278     14291     14289     14276     14278     14292
     14290     14276     14278     14291     14290     14276     14278     14292
     14291     14278     14280     14293     14291     14278     14280     14294
     14292     14278     14280     14293     14292     14278     14280     14294
     14301     14303     14305     14307     14301     14303     14305     14318
     14301     14303     14305     14319     14303     14305     14307     14309
     14303     14305     14307     14311     14305     14303     14301     14313
     14305     14303     14301     14314     14305     14303     14301     14315
     14305     14307     14309     14321     14305     14307     14311     14320
     14307     14305     14303     14316     14307     14305     14303     14317
     14309     14307     14305     14318     14309     14307     14305     14319
     14309     14307     14311     14320     14311     14307     14305     14318
     14311     14307     14305     14319     14311     14307     14309     14321
     14313     14301     14303     14316     14313     14301     14303     14317
     14314     14301     14303     14316     14314     14301     14303     14317
     14315     14301     14303     14316     14315     14301     14303     14317
     14316     14303     14305     14318     14316     14303     14305     14319
     14317     14303     14305     14318     14317     14303     14305     14319
     14326     14328     14330     14332     14326     14328     14330     14343
     14326     14328     14330     14344     14328     14330     14332     14334
     14328     14330     14332     14336     14330     14328     14326     14338
     14330     14328     14326     14339     14330     14328     14326     14340
     14330     14332     14334     14346     14330     14332     14336     14345
     14332     14330     14328     14341     14332     14330     14328     14342
     14334     14332     14330     14343     14334     14332     14330     14344
     14334     14332     14336     14345     14336     14332     14330     14343
     14336     14332     14330     14344     14336     14332     14334     14346
     14338     14326     14328     14341     14338     14326     14328     14342
     14339     14326     14328     14341     14339     14326     14328     14342
     14340     14326     14328     14341     14340     14326     14328     14342
     14341     14328     14330     14343     14341     14328     14330     14344
     14342     14328     14330     14343     14342     14328     14330     14344
     14351     14353     14355     14357     14351     14353     14355     14368
     14351     14353     14355     14369     14353     14355     14357     14359
     14353     14355     14357     14361     14355     14353     14351     14363
     14355     14353     14351     14364     14355     14353     14351     14365
     14355     14357     14359     14371     14355     14357     14361     14370
     14357     14355     14353     14366     14357     14355     14353     14367
     14359     14357     14355     14368     14359     14357     14355     14369
     14359     14357     14361     14370     14361     14357     14355     14368
     14361     14357     14355     14369     14361     14357     14359     14371
     14363     14351     14353     14366     14363     14351     14353     14367
     14364     14351     14353     14366     14364     14351     14353     14367
     14365     14351     14353     14366     14365     14351     14353     14367
     14366     14353     14355     14368     14366     14353     14355     14369
     14367     14353     14355     14368     14367     14353     14355     14369
     14376     14378     14380     14382     14376     14378     14380     14393
     14376     14378     14380     14394     14378     14380     14382     14384
     14378     14380     14382     14386     14380     14378     14376     14388
     14380     14378     14376     14389     14380     14378     14376     14390
     14380     14382     14384     14396     14380     14382     14386     14395
     14382     14380     14378     14391     14382     14380     14378     14392
     14384     14382     14380     14393     14384     14382     14380     14394
     14384     14382     14386     14395     14386     14382     14380     14393
     14386     14382     14380     14394     14386     14382     14384     14396
     14388     14376     14378     14391     14388     14376     14378     14392
     14389     14376     14378     14391     14389     14376     14378     14392
     14390     14376     14378     14391     14390     14376     14378     14392
     14391     14378     14380     14393     14391     14378     14380     14394
     14392     14378     14380     14393     14392     14378     14380     14394
     14401     14403     14405     14407     14401     14403     14405     14418
     14401     14403     14405     14419     14403     14405     14407     14409
     14403     14405     14407     14411     14405     14403     14401     14413
     14405     14403     14401     14414     14405     14403     14401     14415
     14405     14407     14409     14421     14405     14407     14411     14420
     14407     14405     14403     14416     14407     14405     14403     14417
     14409     14407     14405     14418     14409     14407     14405     14419
     14409     14407     14411     14420     14411     14407     14405     14418
     14411     14407     14405     14419     14411     14407     14409     14421
     14413     14401     14403     14416     14413     14401     14403     14417
     14414     14401     14403     14416     14414     14401     14403     14417
     14415     14401     14403     14416     14415     14401     14403     14417
     14416     14403     14405     14418     14416     14403     14405     14419
     14417     14403     14405     14418     14417     14403     14405     14419
     14426     14428     14430     14432     14426     14428     14430     14443
     14426     14428     14430     14444     14428     14430     14432     14434
     14428     14430     14432     14436     14430     14428     14426     14438
     14430     14428     14426     14439     14430     14428     14426     14440
     14430     14432     14434     14446     14430     14432     14436     14445
     14432     14430     14428     14441     14432     14430     14428     14442
     14434     14432     14430     14443     14434     14432     14430     14444
     14434     14432     14436     14445     14436     14432     14430     14443
     14436     14432     14430     14444     14436     14432     14434     14446
     14438     14426     14428     14441     14438     14426     14428     14442
     14439     14426     14428     14441     14439     14426     14428     14442
     14440     14426     14428     14441     14440     14426     14428     14442
     14441     14428     14430     14443     14441     14428     14430     14444
     14442     14428     14430     14443     14442     14428     14430     14444
     14451     14453     14455     14457     14451     14453     14455     14468
     14451     14453     14455     14469     14453     14455     14457     14459
     14453     14455     14457     14461     14455     14453     14451     14463
     14455     14453     14451     14464     14455     14453     14451     14465
     14455     14457     14459     14471     14455     14457     14461     14470
     14457     14455     14453     14466     14457     14455     14453     14467
     14459     14457     14455     14468     14459     14457     14455     14469
     14459     14457     14461     14470     14461     14457     14455     14468
     14461     14457     14455     14469     14461     14457     14459     14471
     14463     14451     14453     14466     14463     14451     14453     14467
     14464     14451     14453     14466     14464     14451     14453     14467
     14465     14451     14453     14466     14465     14451     14453     14467
     14466     14453     14455     14468     14466     14453     14455     14469
     14467     14453     14455     14468     14467     14453     14455     14469
     14476     14478     14480     14482     14476     14478     14480     14493
     14476     14478     14480     14494     14478     14480     14482     14484
     14478     14480     14482     14486     14480     14478     14476     14488
     14480     14478     14476     14489     14480     14478     14476     14490
     14480     14482     14484     14496     14480     14482     14486     14495
     14482     14480     14478     14491     14482     14480     14478     14492
     14484     14482     14480     14493     14484     14482     14480     14494
     14484     14482     14486     14495     14486     14482     14480     14493
     14486     14482     14480     14494     14486     14482     14484     14496
     14488     14476     14478     14491     14488     14476     14478     14492
     14489     14476     14478     14491     14489     14476     14478     14492
     14490     14476     14478     14491     14490     14476     14478     14492
     14491     14478     14480     14493     14491     14478     14480     14494
     14492     14478     14480     14493     14492     14478     14480     14494
     14501     14503     14505     14507     14501     14503     14505     14518
     14501     14503     14505     14519     14503     14505     14507     14509
     14503     14505     14507     14511     14505     14503     14501     14513
     14505     14503     14501     14514     14505     14503     14501     14515
     14505     14507     14509     14521     14505     14507     14511     14520
     14507     14505     14503     14516     14507     14505     14503     14517
     14509     14507     14505     14518     14509     14507     14505     14519
     14509     14507     14511     14520     14511     14507     14505     14518
     14511     14507     14505     14519     14511     14507     14509     14521
     14513     14501     14503     14516     14513     14501     14503     14517
     14514     14501     14503     14516     14514     14501     14503     14517
     14515     14501     14503     14516     14515     14501     14503     14517
     14516     14503     14505     14518     14516     14503     14505     14519
     14517     14503     14505     14518     14517     14503     14505     14519
     14526     14528     14530     14532     14526     14528     14530     14543
     14526     14528     14530     14544     14528     14530     14532     14534
     14528     14530     14532     14536     14530     14528     14526     14538
     14530     14528     14526     14539     14530     14528     14526     14540
     14530     14532     14534     14546     14530     14532     14536     14545
     14532     14530     14528     14541     14532     14530     14528     14542
     14534     14532     14530     14543     14534     14532     14530     14544
     14534     14532     14536     14545     14536     14532     14530     14543
     14536     14532     14530     14544     14536     14532     14534     14546
     14538     14526     14528     14541     14538     14526     14528     14542
     14539     14526     14528     14541     14539     14526     14528     14542
     14540     14526     14528     14541     14540     14526     14528     14542
     14541     14528     14530     14543     14541     14528     14530     14544
     14542     14528     14530     14543     14542     14528     14530     14544
     14551     14553     14555     14557     14551     14553     14555     14568
     14551     14553     14555     14569     14553     14555     14557     14559
     14553     14555     14557     14561     14555     14553     14551     14563
     14555     14553     14551     14564     14555     14553     14551     14565
     14555     14557     14559     14571     14555     14557     14561     14570
     14557     14555     14553     14566     14557     14555     14553     14567
     14559     14557     14555     14568     14559     14557     14555     14569
     14559     14557     14561     14570     14561     14557     14555     14568
     14561     14557     14555     14569     14561     14557     14559     14571
     14563     14551     14553     14566     14563     14551     14553     14567
     14564     14551     14553     14566     14564     14551     14553     14567
     14565     14551     14553     14566     14565     14551     14553     14567
     14566     14553     14555     14568     14566     14553     14555     14569
     14567     14553     14555     14568     14567     14553     14555     14569
     14576     14578     14580     14582     14576     14578     14580     14593
     14576     14578     14580     14594     14578     14580     14582     14584
     14578     14580     14582     14586     14580     14578     14576     14588
     14580     14578     14576     14589     14580     14578     14576     14590
     14580     14582     14584     14596     14580     14582     14586     14595
     14582     14580     14578     14591     14582     14580     14578     14592
     14584     14582     14580     14593     14584     14582     14580     14594
     14584     14582     14586     14595     14586     14582     14580     14593
     14586     14582     14580     14594     14586     14582     14584     14596
     14588     14576     14578     14591     14588     14576     14578     14592
     14589     14576     14578     14591     14589     14576     14578     14592
     14590     14576     14578     14591     14590     14576     14578     14592
     14591     14578     14580     14593     14591     14578     14580     14594
     14592     14578     14580     14593     14592     14578     14580     14594
     14601     14603     14605     14607     14601     14603     14605     14618
     14601     14603     14605     14619     14603     14605     14607     14609
     14603     14605     14607     14611     14605     14603     14601     14613
     14605     14603     14601     14614     14605     14603     14601     14615
     14605     14607     14609     14621     14605     14607     14611     14620
     14607     14605     14603     14616     14607     14605     14603     14617
     14609     14607     14605     14618     14609     14607     14605     14619
     14609     14607     14611     14620     14611     14607     14605     14618
     14611     14607     14605     14619     14611     14607     14609     14621
     14613     14601     14603     14616     14613     14601     14603     14617
     14614     14601     14603     14616     14614     14601     14603     14617
     14615     14601     14603     14616     14615     14601     14603     14617
     14616     14603     14605     14618     14616     14603     14605     14619
     14617     14603     14605     14618     14617     14603     14605     14619
     14626     14628     14630     14632     14626     14628     14630     14643
     14626     14628     14630     14644     14628     14630     14632     14634
     14628     14630     14632     14636     14630     14628     14626     14638
     14630     14628     14626     14639     14630     14628     14626     14640
     14630     14632     14634     14646     14630     14632     14636     14645
     14632     14630     14628     14641     14632     14630     14628     14642
     14634     14632     14630     14643     14634     14632     14630     14644
     14634     14632     14636     14645     14636     14632     14630     14643
     14636     14632     14630     14644     14636     14632     14634     14646
     14638     14626     14628     14641     14638     14626     14628     14642
     14639     14626     14628     14641     14639     14626     14628     14642
     14640     14626     14628     14641     14640     14626     14628     14642
     14641     14628     14630     14643     14641     14628     14630     14644
     14642     14628     14630     14643     14642     14628     14630     14644
     14651     14653     14655     14657     14651     14653     14655     14668
     14651     14653     14655     14669     14653     14655     14657     14659
     14653     14655     14657     14661     14655     14653     14651     14663
     14655     14653     14651     14664     14655     14653     14651     14665
     14655     14657     14659     14671     14655     14657     14661     14670
     14657     14655     14653     14666     14657     14655     14653     14667
     14659     14657     14655     14668     14659     14657     14655     14669
     14659     14657     14661     14670     14661     14657     14655     14668
     14661     14657     14655     14669     14661     14657     14659     14671
     14663     14651     14653     14666     14663     14651     14653     14667
     14664     14651     14653     14666     14664     14651     14653     14667
     14665     14651     14653     14666     14665     14651     14653     14667
     14666     14653     14655     14668     14666     14653     14655     14669
     14667     14653     14655     14668     14667     14653     14655     14669
     14676     14678     14680     14682     14676     14678     14680     14693
     14676     14678     14680     14694     14678     14680     14682     14684
     14678     14680     14682     14686     14680     14678     14676     14688
     14680     14678     14676     14689     14680     14678     14676     14690
     14680     14682     14684     14696     14680     14682     14686     14695
     14682     14680     14678     14691     14682     14680     14678     14692
     14684     14682     14680     14693     14684     14682     14680     14694
     14684     14682     14686     14695     14686     14682     14680     14693
     14686     14682     14680     14694     14686     14682     14684     14696
     14688     14676     14678     14691     14688     14676     14678     14692
     14689     14676     14678     14691     14689     14676     14678     14692
     14690     14676     14678     14691     14690     14676     14678     14692
     14691     14678     14680     14693     14691     14678     14680     14694
     14692     14678     14680     14693     14692     14678     14680     14694
     14701     14703     14705     14707     14701     14703     14705     14718
     14701     14703     14705     14719     14703     14705     14707     14709
     14703     14705     14707     14711     14705     14703     14701     14713
     14705     14703     14701     14714     14705     14703     14701     14715
     14705     14707     14709     14721     14705     14707     14711     14720
     14707     14705     14703     14716     14707     14705     14703     14717
     14709     14707     14705     14718     14709     14707     14705     14719
     14709     14707     14711     14720     14711     14707     14705     14718
     14711     14707     14705     14719     14711     14707     14709     14721
     14713     14701     14703     14716     14713     14701     14703     14717
     14714     14701     14703     14716     14714     14701     14703     14717
     14715     14701     14703     14716     14715     14701     14703     14717
     14716     14703     14705     14718     14716     14703     14705     14719
     14717     14703     14705     14718     14717     14703     14705     14719
     14726     14728     14730     14732     14726     14728     14730     14743
     14726     14728     14730     14744     14728     14730     14732     14734
     14728     14730     14732     14736     14730     14728     14726     14738
     14730     14728     14726     14739     14730     14728     14726     14740
     14730     14732     14734     14746     14730     14732     14736     14745
     14732     14730     14728     14741     14732     14730     14728     14742
     14734     14732     14730     14743     14734     14732     14730     14744
     14734     14732     14736     14745     14736     14732     14730     14743
     14736     14732     14730     14744     14736     14732     14734     14746
     14738     14726     14728     14741     14738     14726     14728     14742
     14739     14726     14728     14741     14739     14726     14728     14742
     14740     14726     14728     14741     14740     14726     14728     14742
     14741     14728     14730     14743     14741     14728     14730     14744
     14742     14728     14730     14743     14742     14728     14730     14744
     14751     14753     14755     14757     14751     14753     14755     14768
     14751     14753     14755     14769     14753     14755     14757     14759
     14753     14755     14757     14761     14755     14753     14751     14763
     14755     14753     14751     14764     14755     14753     14751     14765
     14755     14757     14759     14771     14755     14757     14761     14770
     14757     14755     14753     14766     14757     14755     14753     14767
     14759     14757     14755     14768     14759     14757     14755     14769
     14759     14757     14761     14770     14761     14757     14755     14768
     14761     14757     14755     14769     14761     14757     14759     14771
     14763     14751     14753     14766     14763     14751     14753     14767
     14764     14751     14753     14766     14764     14751     14753     14767
     14765     14751     14753     14766     14765     14751     14753     14767
     14766     14753     14755     14768     14766     14753     14755     14769
     14767     14753     14755     14768     14767     14753     14755     14769
     14776     14778     14780     14782     14776     14778     14780     14793
     14776     14778     14780     14794     14778     14780     14782     14784
     14778     14780     14782     14786     14780     14778     14776     14788
     14780     14778     14776     14789     14780     14778     14776     14790
     14780     14782     14784     14796     14780     14782     14786     14795
     14782     14780     14778     14791     14782     14780     14778     14792
     14784     14782     14780     14793     14784     14782     14780     14794
     14784     14782     14786     14795     14786     14782     14780     14793
     14786     14782     14780     14794     14786     14782     14784     14796
     14788     14776     14778     14791     14788     14776     14778     14792
     14789     14776     14778     14791     14789     14776     14778     14792
     14790     14776     14778     14791     14790     14776     14778     14792
     14791     14778     14780     14793     14791     14778     14780     14794
     14792     14778     14780     14793     14792     14778     14780     14794
     14801     14803     14805     14807     14801     14803     14805     14818
     14801     14803     14805     14819     14803     14805     14807     14809
     14803     14805     14807     14811     14805     14803     14801     14813
     14805     14803     14801     14814     14805     14803     14801     14815
     14805     14807     14809     14821     14805     14807     14811     14820
     14807     14805     14803     14816     14807     14805     14803     14817
     14809     14807     14805     14818     14809     14807     14805     14819
     14809     14807     14811     14820     14811     14807     14805     14818
     14811     14807     14805     14819     14811     14807     14809     14821
     14813     14801     14803     14816     14813     14801     14803     14817
     14814     14801     14803     14816     14814     14801     14803     14817
     14815     14801     14803     14816     14815     14801     14803     14817
     14816     14803     14805     14818     14816     14803     14805     14819
     14817     14803     14805     14818     14817     14803     14805     14819
     14826     14828     14830     14832     14826     14828     14830     14843
     14826     14828     14830     14844     14828     14830     14832     14834
     14828     14830     14832     14836     14830     14828     14826     14838
     14830     14828     14826     14839     14830     14828     14826     14840
     14830     14832     14834     14846     14830     14832     14836     14845
     14832     14830     14828     14841     14832     14830     14828     14842
     14834     14832     14830     14843     14834     14832     14830     14844
     14834     14832     14836     14845     14836     14832     14830     14843
     14836     14832     14830     14844     14836     14832     14834     14846
     14838     14826     14828     14841     14838     14826     14828     14842
     14839     14826     14828     14841     14839     14826     14828     14842
     14840     14826     14828     14841     14840     14826     14828     14842
     14841     14828     14830     14843     14841     14828     14830     14844
     14842     14828     14830     14843     14842     14828     14830     14844
     14851     14853     14855     14857     14851     14853     14855     14868
     14851     14853     14855     14869     14853     14855     14857     14859
     14853     14855     14857     14861     14855     14853     14851     14863
     14855     14853     14851     14864     14855     14853     14851     14865
     14855     14857     14859     14871     14855     14857     14861     14870
     14857     14855     14853     14866     14857     14855     14853     14867
     14859     14857     14855     14868     14859     14857     14855     14869
     14859     14857     14861     14870     14861     14857     14855     14868
     14861     14857     14855     14869     14861     14857     14859     14871
     14863     14851     14853     14866     14863     14851     14853     14867
     14864     14851     14853     14866     14864     14851     14853     14867
     14865     14851     14853     14866     14865     14851     14853     14867
     14866     14853     14855     14868     14866     14853     14855     14869
     14867     14853     14855     14868     14867     14853     14855     14869
     14876     14878     14880     14882     14876     14878     14880     14893
     14876     14878     14880     14894     14878     14880     14882     14884
     14878     14880     14882     14886     14880     14878     14876     14888
     14880     14878     14876     14889     14880     14878     14876     14890
     14880     14882     14884     14896     14880     14882     14886     14895
     14882     14880     14878     14891     14882     14880     14878     14892
     14884     14882     14880     14893     14884     14882     14880     14894
     14884     14882     14886     14895     14886     14882     14880     14893
     14886     14882     14880     14894     14886     14882     14884     14896
     14888     14876     14878     14891     14888     14876     14878     14892
     14889     14876     14878     14891     14889     14876     14878     14892
     14890     14876     14878     14891     14890     14876     14878     14892
     14891     14878     14880     14893     14891     14878     14880     14894
     14892     14878     14880     14893     14892     14878     14880     14894
     14901     14903     14905     14907     14901     14903     14905     14918
     14901     14903     14905     14919     14903     14905     14907     14909
     14903     14905     14907     14911     14905     14903     14901     14913
     14905     14903     14901     14914     14905     14903     14901     14915
     14905     14907     14909     14921     14905     14907     14911     14920
     14907     14905     14903     14916     14907     14905     14903     14917
     14909     14907     14905     14918     14909     14907     14905     14919
     14909     14907     14911     14920     14911     14907     14905     14918
     14911     14907     14905     14919     14911     14907     14909     14921
     14913     14901     14903     14916     14913     14901     14903     14917
     14914     14901     14903     14916     14914     14901     14903     14917
     14915     14901     14903     14916     14915     14901     14903     14917
     14916     14903     14905     14918     14916     14903     14905     14919
     14917     14903     14905     14918     14917     14903     14905     14919
     14926     14928     14930     14932     14926     14928     14930     14943
     14926     14928     14930     14944     14928     14930     14932     14934
     14928     14930     14932     14936     14930     14928     14926     14938
     14930     14928     14926     14939     14930     14928     14926     14940
     14930     14932     14934     14946     14930     14932     14936     14945
     14932     14930     14928     14941     14932     14930     14928     14942
     14934     14932     14930     14943     14934     14932     14930     14944
     14934     14932     14936     14945     14936     14932     14930     14943
     14936     14932     14930     14944     14936     14932     14934     14946
     14938     14926     14928     14941     14938     14926     14928     14942
     14939     14926     14928     14941     14939     14926     14928     14942
     14940     14926     14928     14941     14940     14926     14928     14942
     14941     14928     14930     14943     14941     14928     14930     14944
     14942     14928     14930     14943     14942     14928     14930     14944
     14951     14953     14955     14957     14951     14953     14955     14968
     14951     14953     14955     14969     14953     14955     14957     14959
     14953     14955     14957     14961     14955     14953     14951     14963
     14955     14953     14951     14964     14955     14953     14951     14965
     14955     14957     14959     14971     14955     14957     14961     14970
     14957     14955     14953     14966     14957     14955     14953     14967
     14959     14957     14955     14968     14959     14957     14955     14969
     14959     14957     14961     14970     14961     14957     14955     14968
     14961     14957     14955     14969     14961     14957     14959     14971
     14963     14951     14953     14966     14963     14951     14953     14967
     14964     14951     14953     14966     14964     14951     14953     14967
     14965     14951     14953     14966     14965     14951     14953     14967
     14966     14953     14955     14968     14966     14953     14955     14969
     14967     14953     14955     14968     14967     14953     14955     14969
     14976     14978     14980     14982     14976     14978     14980     14993
     14976     14978     14980     14994     14978     14980     14982     14984
     14978     14980     14982     14986     14980     14978     14976     14988
     14980     14978     14976     14989     14980     14978     14976     14990
     14980     14982     14984     14996     14980     14982     14986     14995
     14982     14980     14978     14991     14982     14980     14978     14992
     14984     14982     14980     14993     14984     14982     14980     14994
     14984     14982     14986     14995     14986     14982     14980     14993
     14986     14982     14980     14994     14986     14982     14984     14996
     14988     14976     14978     14991     14988     14976     14978     14992
     14989     14976     14978     14991     14989     14976     14978     14992
     14990     14976     14978     14991     14990     14976     14978     14992
     14991     14978     14980     14993     14991     14978     14980     14994
     14992     14978     14980     14993     14992     14978     14980     14994
     15001     15003     15005     15007     15001     15003     15005     15018
     15001     15003     15005     15019     15003     15005     15007     15009
     15003     15005     15007     15011     15005     15003     15001     15013
     15005     15003     15001     15014     15005     15003     15001     15015
     15005     15007     15009     15021     15005     15007     15011     15020
     15007     15005     15003     15016     15007     15005     15003     15017
     15009     15007     15005     15018     15009     15007     15005     15019
     15009     15007     15011     15020     15011     15007     15005     15018
     15011     15007     15005     15019     15011     15007     15009     15021
     15013     15001     15003     15016     15013     15001     15003     15017
     15014     15001     15003     15016     15014     15001     15003     15017
     15015     15001     15003     15016     15015     15001     15003     15017
     15016     15003     15005     15018     15016     15003     15005     15019
     15017     15003     15005     15018     15017     15003     15005     15019
     15026     15028     15030     15032     15026     15028     15030     15043
     15026     15028     15030     15044     15028     15030     15032     15034
     15028     15030     15032     15036     15030     15028     15026     15038
     15030     15028     15026     15039     15030     15028     15026     15040
     15030     15032     15034     15046     15030     15032     15036     15045
     15032     15030     15028     15041     15032     15030     15028     15042
     15034     15032     15030     15043     15034     15032     15030     15044
     15034     15032     15036     15045     15036     15032     15030     15043
     15036     15032     15030     15044     15036     15032     15034     15046
     15038     15026     15028     15041     15038     15026     15028     15042
     15039     15026     15028     15041     15039     15026     15028     15042
     15040     15026     15028     15041     15040     15026     15028     15042
     15041     15028     15030     15043     15041     15028     15030     15044
     15042     15028     15030     15043     15042     15028     15030     15044
     15051     15053     15055     15057     15051     15053     15055     15068
     15051     15053     15055     15069     15053     15055     15057     15059
     15053     15055     15057     15061     15055     15053     15051     15063
     15055     15053     15051     15064     15055     15053     15051     15065
     15055     15057     15059     15071     15055     15057     15061     15070
     15057     15055     15053     15066     15057     15055     15053     15067
     15059     15057     15055     15068     15059     15057     15055     15069
     15059     15057     15061     15070     15061     15057     15055     15068
     15061     15057     15055     15069     15061     15057     15059     15071
     15063     15051     15053     15066     15063     15051     15053     15067
     15064     15051     15053     15066     15064     15051     15053     15067
     15065     15051     15053     15066     15065     15051     15053     15067
     15066     15053     15055     15068     15066     15053     15055     15069
     15067     15053     15055     15068     15067     15053     15055     15069
     15076     15078     15080     15082     15076     15078     15080     15093
     15076     15078     15080     15094     15078     15080     15082     15084
     15078     15080     15082     15086     15080     15078     15076     15088
     15080     15078     15076     15089     15080     15078     15076     15090
     15080     15082     15084     15096     15080     15082     15086     15095
     15082     15080     15078     15091     15082     15080     15078     15092
     15084     15082     15080     15093     15084     15082     15080     15094
     15084     15082     15086     15095     15086     15082     15080     15093
     15086     15082     15080     15094     15086     15082     15084     15096
     15088     15076     15078     15091     15088     15076     15078     15092
     15089     15076     15078     15091     15089     15076     15078     15092
     15090     15076     15078     15091     15090     15076     15078     15092
     15091     15078     15080     15093     15091     15078     15080     15094
     15092     15078     15080     15093     15092     15078     15080     15094
     15101     15103     15105     15107     15101     15103     15105     15118
     15101     15103     15105     15119     15103     15105     15107     15109
     15103     15105     15107     15111     15105     15103     15101     15113
     15105     15103     15101     15114     15105     15103     15101     15115
     15105     15107     15109     15121     15105     15107     15111     15120
     15107     15105     15103     15116     15107     15105     15103     15117
     15109     15107     15105     15118     15109     15107     15105     15119
     15109     15107     15111     15120     15111     15107     15105     15118
     15111     15107     15105     15119     15111     15107     15109     15121
     15113     15101     15103     15116     15113     15101     15103     15117
     15114     15101     15103     15116     15114     15101     15103     15117
     15115     15101     15103     15116     15115     15101     15103     15117
     15116     15103     15105     15118     15116     15103     15105     15119
     15117     15103     15105     15118     15117     15103     15105     15119
     15126     15128     15130     15132     15126     15128     15130     15143
     15126     15128     15130     15144     15128     15130     15132     15134
     15128     15130     15132     15136     15130     15128     15126     15138
     15130     15128     15126     15139     15130     15128     15126     15140
     15130     15132     15134     15146     15130     15132     15136     15145
     15132     15130     15128     15141     15132     15130     15128     15142
     15134     15132     15130     15143     15134     15132     15130     15144
     15134     15132     15136     15145     15136     15132     15130     15143
     15136     15132     15130     15144     15136     15132     15134     15146
     15138     15126     15128     15141     15138     15126     15128     15142
     15139     15126     15128     15141     15139     15126     15128     15142
     15140     15126     15128     15141     15140     15126     15128     15142
     15141     15128     15130     15143     15141     15128     15130     15144
     15142     15128     15130     15143     15142     15128     15130     15144
     15151     15153     15155     15157     15151     15153     15155     15168
     15151     15153     15155     15169     15153     15155     15157     15159
     15153     15155     15157     15161     15155     15153     15151     15163
     15155     15153     15151     15164     15155     15153     15151     15165
     15155     15157     15159     15171     15155     15157     15161     15170
     15157     15155     15153     15166     15157     15155     15153     15167
     15159     15157     15155     15168     15159     15157     15155     15169
     15159     15157     15161     15170     15161     15157     15155     15168
     15161     15157     15155     15169     15161     15157     15159     15171
     15163     15151     15153     15166     15163     15151     15153     15167
     15164     15151     15153     15166     15164     15151     15153     15167
     15165     15151     15153     15166     15165     15151     15153     15167
     15166     15153     15155     15168     15166     15153     15155     15169
     15167     15153     15155     15168     15167     15153     15155     15169
     15176     15178     15180     15182     15176     15178     15180     15193
     15176     15178     15180     15194     15178     15180     15182     15184
     15178     15180     15182     15186     15180     15178     15176     15188
     15180     15178     15176     15189     15180     15178     15176     15190
     15180     15182     15184     15196     15180     15182     15186     15195
     15182     15180     15178     15191     15182     15180     15178     15192
     15184     15182     15180     15193     15184     15182     15180     15194
     15184     15182     15186     15195     15186     15182     15180     15193
     15186     15182     15180     15194     15186     15182     15184     15196
     15188     15176     15178     15191     15188     15176     15178     15192
     15189     15176     15178     15191     15189     15176     15178     15192
     15190     15176     15178     15191     15190     15176     15178     15192
     15191     15178     15180     15193     15191     15178     15180     15194
     15192     15178     15180     15193     15192     15178     15180     15194
     15201     15203     15205     15207     15201     15203     15205     15218
     15201     15203     15205     15219     15203     15205     15207     15209
     15203     15205     15207     15211     15205     15203     15201     15213
     15205     15203     15201     15214     15205     15203     15201     15215
     15205     15207     15209     15221     15205     15207     15211     15220
     15207     15205     15203     15216     15207     15205     15203     15217
     15209     15207     15205     15218     15209     15207     15205     15219
     15209     15207     15211     15220     15211     15207     15205     15218
     15211     15207     15205     15219     15211     15207     15209     15221
     15213     15201     15203     15216     15213     15201     15203     15217
     15214     15201     15203     15216     15214     15201     15203     15217
     15215     15201     15203     15216     15215     15201     15203     15217
     15216     15203     15205     15218     15216     15203     15205     15219
     15217     15203     15205     15218     15217     15203     15205     15219
     15226     15228     15230     15232     15226     15228     15230     15243
     15226     15228     15230     15244     15228     15230     15232     15234
     15228     15230     15232     15236     15230     15228     15226     15238
     15230     15228     15226     15239     15230     15228     15226     15240
     15230     15232     15234     15246     15230     15232     15236     15245
     15232     15230     15228     15241     15232     15230     15228     15242
     15234     15232     15230     15243     15234     15232     15230     15244
     15234     15232     15236     15245     15236     15232     15230     15243
     15236     15232     15230     15244     15236     15232     15234     15246
     15238     15226     15228     15241     15238     15226     15228     15242
     15239     15226     15228     15241     15239     15226     15228     15242
     15240     15226     15228     15241     15240     15226     15228     15242
     15241     15228     15230     15243     15241     15228     15230     15244
     15242     15228     15230     15243     15242     15228     15230     15244
     15251     15253     15255     15257     15251     15253     15255     15268
     15251     15253     15255     15269     15253     15255     15257     15259
     15253     15255     15257     15261     15255     15253     15251     15263
     15255     15253     15251     15264     15255     15253     15251     15265
     15255     15257     15259     15271     15255     15257     15261     15270
     15257     15255     15253     15266     15257     15255     15253     15267
     15259     15257     15255     15268     15259     15257     15255     15269
     15259     15257     15261     15270     15261     15257     15255     15268
     15261     15257     15255     15269     15261     15257     15259     15271
     15263     15251     15253     15266     15263     15251     15253     15267
     15264     15251     15253     15266     15264     15251     15253     15267
     15265     15251     15253     15266     15265     15251     15253     15267
     15266     15253     15255     15268     15266     15253     15255     15269
     15267     15253     15255     15268     15267     15253     15255     15269
     15276     15278     15280     15282     15276     15278     15280     15293
     15276     15278     15280     15294     15278     15280     15282     15284
     15278     15280     15282     15286     15280     15278     15276     15288
     15280     15278     15276     15289     15280     15278     15276     15290
     15280     15282     15284     15296     15280     15282     15286     15295
     15282     15280     15278     15291     15282     15280     15278     15292
     15284     15282     15280     15293     15284     15282     15280     15294
     15284     15282     15286     15295     15286     15282     15280     15293
     15286     15282     15280     15294     15286     15282     15284     15296
     15288     15276     15278     15291     15288     15276     15278     15292
     15289     15276     15278     15291     15289     15276     15278     15292
     15290     15276     15278     15291     15290     15276     15278     15292
     15291     15278     15280     15293     15291     15278     15280     15294
     15292     15278     15280     15293     15292     15278     15280     15294
     15301     15303     15305     15307     15301     15303     15305     15318
     15301     15303     15305     15319     15303     15305     15307     15309
     15303     15305     15307     15311     15305     15303     15301     15313
     15305     15303     15301     15314     15305     15303     15301     15315
     15305     15307     15309     15321     15305     15307     15311     15320
     15307     15305     15303     15316     15307     15305     15303     15317
     15309     15307     15305     15318     15309     15307     15305     15319
     15309     15307     15311     15320     15311     15307     15305     15318
     15311     15307     15305     15319     15311     15307     15309     15321
     15313     15301     15303     15316     15313     15301     15303     15317
     15314     15301     15303     15316     15314     15301     15303     15317
     15315     15301     15303     15316     15315     15301     15303     15317
     15316     15303     15305     15318     15316     15303     15305     15319
     15317     15303     15305     15318     15317     15303     15305     15319
     15326     15328     15330     15332     15326     15328     15330     15343
     15326     15328     15330     15344     15328     15330     15332     15334
     15328     15330     15332     15336     15330     15328     15326     15338
     15330     15328     15326     15339     15330     15328     15326     15340
     15330     15332     15334     15346     15330     15332     15336     15345
     15332     15330     15328     15341     15332     15330     15328     15342
     15334     15332     15330     15343     15334     15332     15330     15344
     15334     15332     15336     15345     15336     15332     15330     15343
     15336     15332     15330     15344     15336     15332     15334     15346
     15338     15326     15328     15341     15338     15326     15328     15342
     15339     15326     15328     15341     15339     15326     15328     15342
     15340     15326     15328     15341     15340     15326     15328     15342
     15341     15328     15330     15343     15341     15328     15330     15344
     15342     15328     15330     15343     15342     15328     15330     15344
     15351     15353     15355     15357     15351     15353     15355     15368
     15351     15353     15355     15369     15353     15355     15357     15359
     15353     15355     15357     15361     15355     15353     15351     15363
     15355     15353     15351     15364     15355     15353     15351     15365
     15355     15357     15359     15371     15355     15357     15361     15370
     15357     15355     15353     15366     15357     15355     15353     15367
     15359     15357     15355     15368     15359     15357     15355     15369
     15359     15357     15361     15370     15361     15357     15355     15368
     15361     15357     15355     15369     15361     15357     15359     15371
     15363     15351     15353     15366     15363     15351     15353     15367
     15364     15351     15353     15366     15364     15351     15353     15367
     15365     15351     15353     15366     15365     15351     15353     15367
     15366     15353     15355     15368     15366     15353     15355     15369
     15367     15353     15355     15368     15367     15353     15355     15369
     15376     15378     15380     15382     15376     15378     15380     15393
     15376     15378     15380     15394     15378     15380     15382     15384
     15378     15380     15382     15386     15380     15378     15376     15388
     15380     15378     15376     15389     15380     15378     15376     15390
     15380     15382     15384     15396     15380     15382     15386     15395
     15382     15380     15378     15391     15382     15380     15378     15392
     15384     15382     15380     15393     15384     15382     15380     15394
     15384     15382     15386     15395     15386     15382     15380     15393
     15386     15382     15380     15394     15386     15382     15384     15396
     15388     15376     15378     15391     15388     15376     15378     15392
     15389     15376     15378     15391     15389     15376     15378     15392
     15390     15376     15378     15391     15390     15376     15378     15392
     15391     15378     15380     15393     15391     15378     15380     15394
     15392     15378     15380     15393     15392     15378     15380     15394
     15401     15403     15405     15407     15401     15403     15405     15418
     15401     15403     15405     15419     15403     15405     15407     15409
     15403     15405     15407     15411     15405     15403     15401     15413
     15405     15403     15401     15414     15405     15403     15401     15415
     15405     15407     15409     15421     15405     15407     15411     15420
     15407     15405     15403     15416     15407     15405     15403     15417
     15409     15407     15405     15418     15409     15407     15405     15419
     15409     15407     15411     15420     15411     15407     15405     15418
     15411     15407     15405     15419     15411     15407     15409     15421
     15413     15401     15403     15416     15413     15401     15403     15417
     15414     15401     15403     15416     15414     15401     15403     15417
     15415     15401     15403     15416     15415     15401     15403     15417
     15416     15403     15405     15418     15416     15403     15405     15419
     15417     15403     15405     15418     15417     15403     15405     15419
     15426     15428     15430     15432     15426     15428     15430     15443
     15426     15428     15430     15444     15428     15430     15432     15434
     15428     15430     15432     15436     15430     15428     15426     15438
     15430     15428     15426     15439     15430     15428     15426     15440
     15430     15432     15434     15446     15430     15432     15436     15445
     15432     15430     15428     15441     15432     15430     15428     15442
     15434     15432     15430     15443     15434     15432     15430     15444
     15434     15432     15436     15445     15436     15432     15430     15443
     15436     15432     15430     15444     15436     15432     15434     15446
     15438     15426     15428     15441     15438     15426     15428     15442
     15439     15426     15428     15441     15439     15426     15428     15442
     15440     15426     15428     15441     15440     15426     15428     15442
     15441     15428     15430     15443     15441     15428     15430     15444
     15442     15428     15430     15443     15442     15428     15430     15444
     15451     15453     15455     15457     15451     15453     15455     15468
     15451     15453     15455     15469     15453     15455     15457     15459
     15453     15455     15457     15461     15455     15453     15451     15463
     15455     15453     15451     15464     15455     15453     15451     15465
     15455     15457     15459     15471     15455     15457     15461     15470
     15457     15455     15453     15466     15457     15455     15453     15467
     15459     15457     15455     15468     15459     15457     15455     15469
     15459     15457     15461     15470     15461     15457     15455     15468
     15461     15457     15455     15469     15461     15457     15459     15471
     15463     15451     15453     15466     15463     15451     15453     15467
     15464     15451     15453     15466     15464     15451     15453     15467
     15465     15451     15453     15466     15465     15451     15453     15467
     15466     15453     15455     15468     15466     15453     15455     15469
     15467     15453     15455     15468     15467     15453     15455     15469
     15476     15478     15480     15482     15476     15478     15480     15493
     15476     15478     15480     15494     15478     15480     15482     15484
     15478     15480     15482     15486     15480     15478     15476     15488
     15480     15478     15476     15489     15480     15478     15476     15490
     15480     15482     15484     15496     15480     15482     15486     15495
     15482     15480     15478     15491     15482     15480     15478     15492
     15484     15482     15480     15493     15484     15482     15480     15494
     15484     15482     15486     15495     15486     15482     15480     15493
     15486     15482     15480     15494     15486     15482     15484     15496
     15488     15476     15478     15491     15488     15476     15478     15492
     15489     15476     15478     15491     15489     15476     15478     15492
     15490     15476     15478     15491     15490     15476     15478     15492
     15491     15478     15480     15493     15491     15478     15480     15494
     15492     15478     15480     15493     15492     15478     15480     15494
     15501     15503     15505     15507     15501     15503     15505     15518
     15501     15503     15505     15519     15503     15505     15507     15509
     15503     15505     15507     15511     15505     15503     15501     15513
     15505     15503     15501     15514     15505     15503     15501     15515
     15505     15507     15509     15521     15505     15507     15511     15520
     15507     15505     15503     15516     15507     15505     15503     15517
     15509     15507     15505     15518     15509     15507     15505     15519
     15509     15507     15511     15520     15511     15507     15505     15518
     15511     15507     15505     15519     15511     15507     15509     15521
     15513     15501     15503     15516     15513     15501     15503     15517
     15514     15501     15503     15516     15514     15501     15503     15517
     15515     15501     15503     15516     15515     15501     15503     15517
     15516     15503     15505     15518     15516     15503     15505     15519
     15517     15503     15505     15518     15517     15503     15505     15519
     15526     15528     15530     15532     15526     15528     15530     15543
     15526     15528     15530     15544     15528     15530     15532     15534
     15528     15530     15532     15536     15530     15528     15526     15538
     15530     15528     15526     15539     15530     15528     15526     15540
     15530     15532     15534     15546     15530     15532     15536     15545
     15532     15530     15528     15541     15532     15530     15528     15542
     15534     15532     15530     15543     15534     15532     15530     15544
     15534     15532     15536     15545     15536     15532     15530     15543
     15536     15532     15530     15544     15536     15532     15534     15546
     15538     15526     15528     15541     15538     15526     15528     15542
     15539     15526     15528     15541     15539     15526     15528     15542
     15540     15526     15528     15541     15540     15526     15528     15542
     15541     15528     15530     15543     15541     15528     15530     15544
     15542     15528     15530     15543     15542     15528     15530     15544
     15551     15553     15555     15557     15551     15553     15555     15568
     15551     15553     15555     15569     15553     15555     15557     15559
     15553     15555     15557     15561     15555     15553     15551     15563
     15555     15553     15551     15564     15555     15553     15551     15565
     15555     15557     15559     15571     15555     15557     15561     15570
     15557     15555     15553     15566     15557     15555     15553     15567
     15559     15557     15555     15568     15559     15557     15555     15569
     15559     15557     15561     15570     15561     15557     15555     15568
     15561     15557     15555     15569     15561     15557     15559     15571
     15563     15551     15553     15566     15563     15551     15553     15567
     15564     15551     15553     15566     15564     15551     15553     15567
     15565     15551     15553     15566     15565     15551     15553     15567
     15566     15553     15555     15568     15566     15553     15555     15569
     15567     15553     15555     15568     15567     15553     15555     15569
     15576     15578     15580     15582     15576     15578     15580     15593
     15576     15578     15580     15594     15578     15580     15582     15584
     15578     15580     15582     15586     15580     15578     15576     15588
     15580     15578     15576     15589     15580     15578     15576     15590
     15580     15582     15584     15596     15580     15582     15586     15595
     15582     15580     15578     15591     15582     15580     15578     15592
     15584     15582     15580     15593     15584     15582     15580     15594
     15584     15582     15586     15595     15586     15582     15580     15593
     15586     15582     15580     15594     15586     15582     15584     15596
     15588     15576     15578     15591     15588     15576     15578     15592
     15589     15576     15578     15591     15589     15576     15578     15592
     15590     15576     15578     15591     15590     15576     15578     15592
     15591     15578     15580     15593     15591     15578     15580     15594
     15592     15578     15580     15593     15592     15578     15580     15594
     15601     15603     15605     15607     15601     15603     15605     15618
     15601     15603     15605     15619     15603     15605     15607     15609
     15603     15605     15607     15611     15605     15603     15601     15613
     15605     15603     15601     15614     15605     15603     15601     15615
     15605     15607     15609     15621     15605     15607     15611     15620
     15607     15605     15603     15616     15607     15605     15603     15617
     15609     15607     15605     15618     15609     15607     15605     15619
     15609     15607     15611     15620     15611     15607     15605     15618
     15611     15607     15605     15619     15611     15607     15609     15621
     15613     15601     15603     15616     15613     15601     15603     15617
     15614     15601     15603     15616     15614     15601     15603     15617
     15615     15601     15603     15616     15615     15601     15603     15617
     15616     15603     15605     15618     15616     15603     15605     15619
     15617     15603     15605     15618     15617     15603     15605     15619
     15626     15628     15630     15632     15626     15628     15630     15643
     15626     15628     15630     15644     15628     15630     15632     15634
     15628     15630     15632     15636     15630     15628     15626     15638
     15630     15628     15626     15639     15630     15628     15626     15640
     15630     15632     15634     15646     15630     15632     15636     15645
     15632     15630     15628     15641     15632     15630     15628     15642
     15634     15632     15630     15643     15634     15632     15630     15644
     15634     15632     15636     15645     15636     15632     15630     15643
     15636     15632     15630     15644     15636     15632     15634     15646
     15638     15626     15628     15641     15638     15626     15628     15642
     15639     15626     15628     15641     15639     15626     15628     15642
     15640     15626     15628     15641     15640     15626     15628     15642
     15641     15628     15630     15643     15641     15628     15630     15644
     15642     15628     15630     15643     15642     15628     15630     15644
     15651     15653     15655     15657     15651     15653     15655     15668
     15651     15653     15655     15669     15653     15655     15657     15659
     15653     15655     15657     15661     15655     15653     15651     15663
     15655     15653     15651     15664     15655     15653     15651     15665
     15655     15657     15659     15671     15655     15657     15661     15670
     15657     15655     15653     15666     15657     15655     15653     15667
     15659     15657     15655     15668     15659     15657     15655     15669
     15659     15657     15661     15670     15661     15657     15655     15668
     15661     15657     15655     15669     15661     15657     15659     15671
     15663     15651     15653     15666     15663     15651     15653     15667
     15664     15651     15653     15666     15664     15651     15653     15667
     15665     15651     15653     15666     15665     15651     15653     15667
     15666     15653     15655     15668     15666     15653     15655     15669
     15667     15653     15655     15668     15667     15653     15655     15669
     15676     15678     15680     15682     15676     15678     15680     15693
     15676     15678     15680     15694     15678     15680     15682     15684
     15678     15680     15682     15686     15680     15678     15676     15688
     15680     15678     15676     15689     15680     15678     15676     15690
     15680     15682     15684     15696     15680     15682     15686     15695
     15682     15680     15678     15691     15682     15680     15678     15692
     15684     15682     15680     15693     15684     15682     15680     15694
     15684     15682     15686     15695     15686     15682     15680     15693
     15686     15682     15680     15694     15686     15682     15684     15696
     15688     15676     15678     15691     15688     15676     15678     15692
     15689     15676     15678     15691     15689     15676     15678     15692
     15690     15676     15678     15691     15690     15676     15678     15692
     15691     15678     15680     15693     15691     15678     15680     15694
     15692     15678     15680     15693     15692     15678     15680     15694
     15701     15703     15705     15707     15701     15703     15705     15718
     15701     15703     15705     15719     15703     15705     15707     15709
     15703     15705     15707     15711     15705     15703     15701     15713
     15705     15703     15701     15714     15705     15703     15701     15715
     15705     15707     15709     15721     15705     15707     15711     15720
     15707     15705     15703     15716     15707     15705     15703     15717
     15709     15707     15705     15718     15709     15707     15705     15719
     15709     15707     15711     15720     15711     15707     15705     15718
     15711     15707     15705     15719     15711     15707     15709     15721
     15713     15701     15703     15716     15713     15701     15703     15717
     15714     15701     15703     15716     15714     15701     15703     15717
     15715     15701     15703     15716     15715     15701     15703     15717
     15716     15703     15705     15718     15716     15703     15705     15719
     15717     15703     15705     15718     15717     15703     15705     15719
     15726     15728     15730     15732     15726     15728     15730     15743
     15726     15728     15730     15744     15728     15730     15732     15734
     15728     15730     15732     15736     15730     15728     15726     15738
     15730     15728     15726     15739     15730     15728     15726     15740
     15730     15732     15734     15746     15730     15732     15736     15745
     15732     15730     15728     15741     15732     15730     15728     15742
     15734     15732     15730     15743     15734     15732     15730     15744
     15734     15732     15736     15745     15736     15732     15730     15743
     15736     15732     15730     15744     15736     15732     15734     15746
     15738     15726     15728     15741     15738     15726     15728     15742
     15739     15726     15728     15741     15739     15726     15728     15742
     15740     15726     15728     15741     15740     15726     15728     15742
     15741     15728     15730     15743     15741     15728     15730     15744
     15742     15728     15730     15743     15742     15728     15730     15744
     15751     15753     15755     15757     15751     15753     15755     15768
     15751     15753     15755     15769     15753     15755     15757     15759
     15753     15755     15757     15761     15755     15753     15751     15763
     15755     15753     15751     15764     15755     15753     15751     15765
     15755     15757     15759     15771     15755     15757     15761     15770
     15757     15755     15753     15766     15757     15755     15753     15767
     15759     15757     15755     15768     15759     15757     15755     15769
     15759     15757     15761     15770     15761     15757     15755     15768
     15761     15757     15755     15769     15761     15757     15759     15771
     15763     15751     15753     15766     15763     15751     15753     15767
     15764     15751     15753     15766     15764     15751     15753     15767
     15765     15751     15753     15766     15765     15751     15753     15767
     15766     15753     15755     15768     15766     15753     15755     15769
     15767     15753     15755     15768     15767     15753     15755     15769
     15776     15778     15780     15782     15776     15778     15780     15793
     15776     15778     15780     15794     15778     15780     15782     15784
     15778     15780     15782     15786     15780     15778     15776     15788
     15780     15778     15776     15789     15780     15778     15776     15790
     15780     15782     15784     15796     15780     15782     15786     15795
     15782     15780     15778     15791     15782     15780     15778     15792
     15784     15782     15780     15793     15784     15782     15780     15794
     15784     15782     15786     15795     15786     15782     15780     15793
     15786     15782     15780     15794     15786     15782     15784     15796
     15788     15776     15778     15791     15788     15776     15778     15792
     15789     15776     15778     15791     15789     15776     15778     15792
     15790     15776     15778     15791     15790     15776     15778     15792
     15791     15778     15780     15793     15791     15778     15780     15794
     15792     15778     15780     15793     15792     15778     15780     15794
     15801     15803     15805     15807     15801     15803     15805     15818
     15801     15803     15805     15819     15803     15805     15807     15809
     15803     15805     15807     15811     15805     15803     15801     15813
     15805     15803     15801     15814     15805     15803     15801     15815
     15805     15807     15809     15821     15805     15807     15811     15820
     15807     15805     15803     15816     15807     15805     15803     15817
     15809     15807     15805     15818     15809     15807     15805     15819
     15809     15807     15811     15820     15811     15807     15805     15818
     15811     15807     15805     15819     15811     15807     15809     15821
     15813     15801     15803     15816     15813     15801     15803     15817
     15814     15801     15803     15816     15814     15801     15803     15817
     15815     15801     15803     15816     15815     15801     15803     15817
     15816     15803     15805     15818     15816     15803     15805     15819
     15817     15803     15805     15818     15817     15803     15805     15819
     15826     15828     15830     15832     15826     15828     15830     15843
     15826     15828     15830     15844     15828     15830     15832     15834
     15828     15830     15832     15836     15830     15828     15826     15838
     15830     15828     15826     15839     15830     15828     15826     15840
     15830     15832     15834     15846     15830     15832     15836     15845
     15832     15830     15828     15841     15832     15830     15828     15842
     15834     15832     15830     15843     15834     15832     15830     15844
     15834     15832     15836     15845     15836     15832     15830     15843
     15836     15832     15830     15844     15836     15832     15834     15846
     15838     15826     15828     15841     15838     15826     15828     15842
     15839     15826     15828     15841     15839     15826     15828     15842
     15840     15826     15828     15841     15840     15826     15828     15842
     15841     15828     15830     15843     15841     15828     15830     15844
     15842     15828     15830     15843     15842     15828     15830     15844
     15851     15853     15855     15857     15851     15853     15855     15868
     15851     15853     15855     15869     15853     15855     15857     15859
     15853     15855     15857     15861     15855     15853     15851     15863
     15855     15853     15851     15864     15855     15853     15851     15865
     15855     15857     15859     15871     15855     15857     15861     15870
     15857     15855     15853     15866     15857     15855     15853     15867
     15859     15857     15855     15868     15859     15857     15855     15869
     15859     15857     15861     15870     15861     15857     15855     15868
     15861     15857     15855     15869     15861     15857     15859     15871
     15863     15851     15853     15866     15863     15851     15853     15867
     15864     15851     15853     15866     15864     15851     15853     15867
     15865     15851     15853     15866     15865     15851     15853     15867
     15866     15853     15855     15868     15866     15853     15855     15869
     15867     15853     15855     15868     15867     15853     15855     15869
     15876     15878     15880     15882     15876     15878     15880     15893
     15876     15878     15880     15894     15878     15880     15882     15884
     15878     15880     15882     15886     15880     15878     15876     15888
     15880     15878     15876     15889     15880     15878     15876     15890
     15880     15882     15884     15896     15880     15882     15886     15895
     15882     15880     15878     15891     15882     15880     15878     15892
     15884     15882     15880     15893     15884     15882     15880     15894
     15884     15882     15886     15895     15886     15882     15880     15893
     15886     15882     15880     15894     15886     15882     15884     15896
     15888     15876     15878     15891     15888     15876     15878     15892
     15889     15876     15878     15891     15889     15876     15878     15892
     15890     15876     15878     15891     15890     15876     15878     15892
     15891     15878     15880     15893     15891     15878     15880     15894
     15892     15878     15880     15893     15892     15878     15880     15894
     15901     15903     15905     15907     15901     15903     15905     15918
     15901     15903     15905     15919     15903     15905     15907     15909
     15903     15905     15907     15911     15905     15903     15901     15913
     15905     15903     15901     15914     15905     15903     15901     15915
     15905     15907     15909     15921     15905     15907     15911     15920
     15907     15905     15903     15916     15907     15905     15903     15917
     15909     15907     15905     15918     15909     15907     15905     15919
     15909     15907     15911     15920     15911     15907     15905     15918
     15911     15907     15905     15919     15911     15907     15909     15921
     15913     15901     15903     15916     15913     15901     15903     15917
     15914     15901     15903     15916     15914     15901     15903     15917
     15915     15901     15903     15916     15915     15901     15903     15917
     15916     15903     15905     15918     15916     15903     15905     15919
     15917     15903     15905     15918     15917     15903     15905     15919
     15926     15928     15930     15932     15926     15928     15930     15943
     15926     15928     15930     15944     15928     15930     15932     15934
     15928     15930     15932     15936     15930     15928     15926     15938
     15930     15928     15926     15939     15930     15928     15926     15940
     15930     15932     15934     15946     15930     15932     15936     15945
     15932     15930     15928     15941     15932     15930     15928     15942
     15934     15932     15930     15943     15934     15932     15930     15944
     15934     15932     15936     15945     15936     15932     15930     15943
     15936     15932     15930     15944     15936     15932     15934     15946
     15938     15926     15928     15941     15938     15926     15928     15942
     15939     15926     15928     15941     15939     15926     15928     15942
     15940     15926     15928     15941     15940     15926     15928     15942
     15941     15928     15930     15943     15941     15928     15930     15944
     15942     15928     15930     15943     15942     15928     15930     15944
     15951     15953     15955     15957     15951     15953     15955     15968
     15951     15953     15955     15969     15953     15955     15957     15959
     15953     15955     15957     15961     15955     15953     15951     15963
     15955     15953     15951     15964     15955     15953     15951     15965
     15955     15957     15959     15971     15955     15957     15961     15970
     15957     15955     15953     15966     15957     15955     15953     15967
     15959     15957     15955     15968     15959     15957     15955     15969
     15959     15957     15961     15970     15961     15957     15955     15968
     15961     15957     15955     15969     15961     15957     15959     15971
     15963     15951     15953     15966     15963     15951     15953     15967
     15964     15951     15953     15966     15964     15951     15953     15967
     15965     15951     15953     15966     15965     15951     15953     15967
     15966     15953     15955     15968     15966     15953     15955     15969
     15967     15953     15955     15968     15967     15953     15955     15969
     15976     15978     15980     15982     15976     15978     15980     15993
     15976     15978     15980     15994     15978     15980     15982     15984
     15978     15980     15982     15986     15980     15978     15976     15988
     15980     15978     15976     15989     15980     15978     15976     15990
     15980     15982     15984     15996     15980     15982     15986     15995
     15982     15980     15978     15991     15982     15980     15978     15992
     15984     15982     15980     15993     15984     15982     15980     15994
     15984     15982     15986     15995     15986     15982     15980     15993
     15986     15982     15980     15994     15986     15982     15984     15996
     15988     15976     15978     15991     15988     15976     15978     15992
     15989     15976     15978     15991     15989     15976     15978     15992
     15990     15976     15978     15991     15990     15976     15978     15992
     15991     15978     15980     15993     15991     15978     15980     15994
     15992     15978     15980     15993     15992     15978     15980     15994
     16001     16003     16005     16007     16001     16003     16005     16018
     16001     16003     16005     16019     16003     16005     16007     16009
     16003     16005     16007     16011     16005     16003     16001     16013
     16005     16003     16001     16014     16005     16003     16001     16015
     16005     16007     16009     16021     16005     16007     16011     16020
     16007     16005     16003     16016     16007     16005     16003     16017
     16009     16007     16005     16018     16009     16007     16005     16019
     16009     16007     16011     16020     16011     16007     16005     16018
     16011     16007     16005     16019     16011     16007     16009     16021
     16013     16001     16003     16016     16013     16001     16003     16017
     16014     16001     16003     16016     16014     16001     16003     16017
     16015     16001     16003     16016     16015     16001     16003     16017
     16016     16003     16005     16018     16016     16003     16005     16019
     16017     16003     16005     16018     16017     16003     16005     16019
     16026     16028     16030     16032     16026     16028     16030     16043
     16026     16028     16030     16044     16028     16030     16032     16034
     16028     16030     16032     16036     16030     16028     16026     16038
     16030     16028     16026     16039     16030     16028     16026     16040
     16030     16032     16034     16046     16030     16032     16036     16045
     16032     16030     16028     16041     16032     16030     16028     16042
     16034     16032     16030     16043     16034     16032     16030     16044
     16034     16032     16036     16045     16036     16032     16030     16043
     16036     16032     16030     16044     16036     16032     16034     16046
     16038     16026     16028     16041     16038     16026     16028     16042
     16039     16026     16028     16041     16039     16026     16028     16042
     16040     16026     16028     16041     16040     16026     16028     16042
     16041     16028     16030     16043     16041     16028     16030     16044
     16042     16028     16030     16043     16042     16028     16030     16044
     16051     16053     16055     16057     16051     16053     16055     16068
     16051     16053     16055     16069     16053     16055     16057     16059
     16053     16055     16057     16061     16055     16053     16051     16063
     16055     16053     16051     16064     16055     16053     16051     16065
     16055     16057     16059     16071     16055     16057     16061     16070
     16057     16055     16053     16066     16057     16055     16053     16067
     16059     16057     16055     16068     16059     16057     16055     16069
     16059     16057     16061     16070     16061     16057     16055     16068
     16061     16057     16055     16069     16061     16057     16059     16071
     16063     16051     16053     16066     16063     16051     16053     16067
     16064     16051     16053     16066     16064     16051     16053     16067
     16065     16051     16053     16066     16065     16051     16053     16067
     16066     16053     16055     16068     16066     16053     16055     16069
     16067     16053     16055     16068     16067     16053     16055     16069
     16076     16078     16080     16082     16076     16078     16080     16093
     16076     16078     16080     16094     16078     16080     16082     16084
     16078     16080     16082     16086     16080     16078     16076     16088
     16080     16078     16076     16089     16080     16078     16076     16090
     16080     16082     16084     16096     16080     16082     16086     16095
     16082     16080     16078     16091     16082     16080     16078     16092
     16084     16082     16080     16093     16084     16082     16080     16094
     16084     16082     16086     16095     16086     16082     16080     16093
     16086     16082     16080     16094     16086     16082     16084     16096
     16088     16076     16078     16091     16088     16076     16078     16092
     16089     16076     16078     16091     16089     16076     16078     16092
     16090     16076     16078     16091     16090     16076     16078     16092
     16091     16078     16080     16093     16091     16078     16080     16094
     16092     16078     16080     16093     16092     16078     16080     16094
     16101     16103     16105     16107     16101     16103     16105     16118
     16101     16103     16105     16119     16103     16105     16107     16109
     16103     16105     16107     16111     16105     16103     16101     16113
     16105     16103     16101     16114     16105     16103     16101     16115
     16105     16107     16109     16121     16105     16107     16111     16120
     16107     16105     16103     16116     16107     16105     16103     16117
     16109     16107     16105     16118     16109     16107     16105     16119
     16109     16107     16111     16120     16111     16107     16105     16118
     16111     16107     16105     16119     16111     16107     16109     16121
     16113     16101     16103     16116     16113     16101     16103     16117
     16114     16101     16103     16116     16114     16101     16103     16117
     16115     16101     16103     16116     16115     16101     16103     16117
     16116     16103     16105     16118     16116     16103     16105     16119
     16117     16103     16105     16118     16117     16103     16105     16119
     16126     16128     16130     16132     16126     16128     16130     16143
     16126     16128     16130     16144     16128     16130     16132     16134
     16128     16130     16132     16136     16130     16128     16126     16138
     16130     16128     16126     16139     16130     16128     16126     16140
     16130     16132     16134     16146     16130     16132     16136     16145
     16132     16130     16128     16141     16132     16130     16128     16142
     16134     16132     16130     16143     16134     16132     16130     16144
     16134     16132     16136     16145     16136     16132     16130     16143
     16136     16132     16130     16144     16136     16132     16134     16146
     16138     16126     16128     16141     16138     16126     16128     16142
     16139     16126     16128     16141     16139     16126     16128     16142
     16140     16126     16128     16141     16140     16126     16128     16142
     16141     16128     16130     16143     16141     16128     16130     16144
     16142     16128     16130     16143     16142     16128     16130     16144
     16151     16153     16155     16157     16151     16153     16155     16168
     16151     16153     16155     16169     16153     16155     16157     16159
     16153     16155     16157     16161     16155     16153     16151     16163
     16155     16153     16151     16164     16155     16153     16151     16165
     16155     16157     16159     16171     16155     16157     16161     16170
     16157     16155     16153     16166     16157     16155     16153     16167
     16159     16157     16155     16168     16159     16157     16155     16169
     16159     16157     16161     16170     16161     16157     16155     16168
     16161     16157     16155     16169     16161     16157     16159     16171
     16163     16151     16153     16166     16163     16151     16153     16167
     16164     16151     16153     16166     16164     16151     16153     16167
     16165     16151     16153     16166     16165     16151     16153     16167
     16166     16153     16155     16168     16166     16153     16155     16169
     16167     16153     16155     16168     16167     16153     16155     16169
     16176     16178     16180     16182     16176     16178     16180     16193
     16176     16178     16180     16194     16178     16180     16182     16184
     16178     16180     16182     16186     16180     16178     16176     16188
     16180     16178     16176     16189     16180     16178     16176     16190
     16180     16182     16184     16196     16180     16182     16186     16195
     16182     16180     16178     16191     16182     16180     16178     16192
     16184     16182     16180     16193     16184     16182     16180     16194
     16184     16182     16186     16195     16186     16182     16180     16193
     16186     16182     16180     16194     16186     16182     16184     16196
     16188     16176     16178     16191     16188     16176     16178     16192
     16189     16176     16178     16191     16189     16176     16178     16192
     16190     16176     16178     16191     16190     16176     16178     16192
     16191     16178     16180     16193     16191     16178     16180     16194
     16192     16178     16180     16193     16192     16178     16180     16194
     16201     16203     16205     16207     16201     16203     16205     16218
     16201     16203     16205     16219     16203     16205     16207     16209
     16203     16205     16207     16211     16205     16203     16201     16213
     16205     16203     16201     16214     16205     16203     16201     16215
     16205     16207     16209     16221     16205     16207     16211     16220
     16207     16205     16203     16216     16207     16205     16203     16217
     16209     16207     16205     16218     16209     16207     16205     16219
     16209     16207     16211     16220     16211     16207     16205     16218
     16211     16207     16205     16219     16211     16207     16209     16221
     16213     16201     16203     16216     16213     16201     16203     16217
     16214     16201     16203     16216     16214     16201     16203     16217
     16215     16201     16203     16216     16215     16201     16203     16217
     16216     16203     16205     16218     16216     16203     16205     16219
     16217     16203     16205     16218     16217     16203     16205     16219
     16226     16228     16230     16232     16226     16228     16230     16243
     16226     16228     16230     16244     16228     16230     16232     16234
     16228     16230     16232     16236     16230     16228     16226     16238
     16230     16228     16226     16239     16230     16228     16226     16240
     16230     16232     16234     16246     16230     16232     16236     16245
     16232     16230     16228     16241     16232     16230     16228     16242
     16234     16232     16230     16243     16234     16232     16230     16244
     16234     16232     16236     16245     16236     16232     16230     16243
     16236     16232     16230     16244     16236     16232     16234     16246
     16238     16226     16228     16241     16238     16226     16228     16242
     16239     16226     16228     16241     16239     16226     16228     16242
     16240     16226     16228     16241     16240     16226     16228     16242
     16241     16228     16230     16243     16241     16228     16230     16244
     16242     16228     16230     16243     16242     16228     16230     16244
     16251     16253     16255     16257     16251     16253     16255     16268
     16251     16253     16255     16269     16253     16255     16257     16259
     16253     16255     16257     16261     16255     16253     16251     16263
     16255     16253     16251     16264     16255     16253     16251     16265
     16255     16257     16259     16271     16255     16257     16261     16270
     16257     16255     16253     16266     16257     16255     16253     16267
     16259     16257     16255     16268     16259     16257     16255     16269
     16259     16257     16261     16270     16261     16257     16255     16268
     16261     16257     16255     16269     16261     16257     16259     16271
     16263     16251     16253     16266     16263     16251     16253     16267
     16264     16251     16253     16266     16264     16251     16253     16267
     16265     16251     16253     16266     16265     16251     16253     16267
     16266     16253     16255     16268     16266     16253     16255     16269
     16267     16253     16255     16268     16267     16253     16255     16269
     16276     16278     16280     16282     16276     16278     16280     16293
     16276     16278     16280     16294     16278     16280     16282     16284
     16278     16280     16282     16286     16280     16278     16276     16288
     16280     16278     16276     16289     16280     16278     16276     16290
     16280     16282     16284     16296     16280     16282     16286     16295
     16282     16280     16278     16291     16282     16280     16278     16292
     16284     16282     16280     16293     16284     16282     16280     16294
     16284     16282     16286     16295     16286     16282     16280     16293
     16286     16282     16280     16294     16286     16282     16284     16296
     16288     16276     16278     16291     16288     16276     16278     16292
     16289     16276     16278     16291     16289     16276     16278     16292
     16290     16276     16278     16291     16290     16276     16278     16292
     16291     16278     16280     16293     16291     16278     16280     16294
     16292     16278     16280     16293     16292     16278     16280     16294
     16301     16303     16305     16307     16301     16303     16305     16318
     16301     16303     16305     16319     16303     16305     16307     16309
     16303     16305     16307     16311     16305     16303     16301     16313
     16305     16303     16301     16314     16305     16303     16301     16315
     16305     16307     16309     16321     16305     16307     16311     16320
     16307     16305     16303     16316     16307     16305     16303     16317
     16309     16307     16305     16318     16309     16307     16305     16319
     16309     16307     16311     16320     16311     16307     16305     16318
     16311     16307     16305     16319     16311     16307     16309     16321
     16313     16301     16303     16316     16313     16301     16303     16317
     16314     16301     16303     16316     16314     16301     16303     16317
     16315     16301     16303     16316     16315     16301     16303     16317
     16316     16303     16305     16318     16316     16303     16305     16319
     16317     16303     16305     16318     16317     16303     16305     16319
     16326     16328     16330     16332     16326     16328     16330     16343
     16326     16328     16330     16344     16328     16330     16332     16334
     16328     16330     16332     16336     16330     16328     16326     16338
     16330     16328     16326     16339     16330     16328     16326     16340
     16330     16332     16334     16346     16330     16332     16336     16345
     16332     16330     16328     16341     16332     16330     16328     16342
     16334     16332     16330     16343     16334     16332     16330     16344
     16334     16332     16336     16345     16336     16332     16330     16343
     16336     16332     16330     16344     16336     16332     16334     16346
     16338     16326     16328     16341     16338     16326     16328     16342
     16339     16326     16328     16341     16339     16326     16328     16342
     16340     16326     16328     16341     16340     16326     16328     16342
     16341     16328     16330     16343     16341     16328     16330     16344
     16342     16328     16330     16343     16342     16328     16330     16344
     16351     16353     16355     16357     16351     16353     16355     16368
     16351     16353     16355     16369     16353     16355     16357     16359
     16353     16355     16357     16361     16355     16353     16351     16363
     16355     16353     16351     16364     16355     16353     16351     16365
     16355     16357     16359     16371     16355     16357     16361     16370
     16357     16355     16353     16366     16357     16355     16353     16367
     16359     16357     16355     16368     16359     16357     16355     16369
     16359     16357     16361     16370     16361     16357     16355     16368
     16361     16357     16355     16369     16361     16357     16359     16371
     16363     16351     16353     16366     16363     16351     16353     16367
     16364     16351     16353     16366     16364     16351     16353     16367
     16365     16351     16353     16366     16365     16351     16353     16367
     16366     16353     16355     16368     16366     16353     16355     16369
     16367     16353     16355     16368     16367     16353     16355     16369
     16376     16378     16380     16382     16376     16378     16380     16393
     16376     16378     16380     16394     16378     16380     16382     16384
     16378     16380     16382     16386     16380     16378     16376     16388
     16380     16378     16376     16389     16380     16378     16376     16390
     16380     16382     16384     16396     16380     16382     16386     16395
     16382     16380     16378     16391     16382     16380     16378     16392
     16384     16382     16380     16393     16384     16382     16380     16394
     16384     16382     16386     16395     16386     16382     16380     16393
     16386     16382     16380     16394     16386     16382     16384     16396
     16388     16376     16378     16391     16388     16376     16378     16392
     16389     16376     16378     16391     16389     16376     16378     16392
     16390     16376     16378     16391     16390     16376     16378     16392
     16391     16378     16380     16393     16391     16378     16380     16394
     16392     16378     16380     16393     16392     16378     16380     16394
     16401     16403     16405     16407     16401     16403     16405     16418
     16401     16403     16405     16419     16403     16405     16407     16409
     16403     16405     16407     16411     16405     16403     16401     16413
     16405     16403     16401     16414     16405     16403     16401     16415
     16405     16407     16409     16421     16405     16407     16411     16420
     16407     16405     16403     16416     16407     16405     16403     16417
     16409     16407     16405     16418     16409     16407     16405     16419
     16409     16407     16411     16420     16411     16407     16405     16418
     16411     16407     16405     16419     16411     16407     16409     16421
     16413     16401     16403     16416     16413     16401     16403     16417
     16414     16401     16403     16416     16414     16401     16403     16417
     16415     16401     16403     16416     16415     16401     16403     16417
     16416     16403     16405     16418     16416     16403     16405     16419
     16417     16403     16405     16418     16417     16403     16405     16419
     16426     16428     16430     16432     16426     16428     16430     16443
     16426     16428     16430     16444     16428     16430     16432     16434
     16428     16430     16432     16436     16430     16428     16426     16438
     16430     16428     16426     16439     16430     16428     16426     16440
     16430     16432     16434     16446     16430     16432     16436     16445
     16432     16430     16428     16441     16432     16430     16428     16442
     16434     16432     16430     16443     16434     16432     16430     16444
     16434     16432     16436     16445     16436     16432     16430     16443
     16436     16432     16430     16444     16436     16432     16434     16446
     16438     16426     16428     16441     16438     16426     16428     16442
     16439     16426     16428     16441     16439     16426     16428     16442
     16440     16426     16428     16441     16440     16426     16428     16442
     16441     16428     16430     16443     16441     16428     16430     16444
     16442     16428     16430     16443     16442     16428     16430     16444
     16451     16453     16455     16457     16451     16453     16455     16468
     16451     16453     16455     16469     16453     16455     16457     16459
     16453     16455     16457     16461     16455     16453     16451     16463
     16455     16453     16451     16464     16455     16453     16451     16465
     16455     16457     16459     16471     16455     16457     16461     16470
     16457     16455     16453     16466     16457     16455     16453     16467
     16459     16457     16455     16468     16459     16457     16455     16469
     16459     16457     16461     16470     16461     16457     16455     16468
     16461     16457     16455     16469     16461     16457     16459     16471
     16463     16451     16453     16466     16463     16451     16453     16467
     16464     16451     16453     16466     16464     16451     16453     16467
     16465     16451     16453     16466     16465     16451     16453     16467
     16466     16453     16455     16468     16466     16453     16455     16469
     16467     16453     16455     16468     16467     16453     16455     16469
     16476     16478     16480     16482     16476     16478     16480     16493
     16476     16478     16480     16494     16478     16480     16482     16484
     16478     16480     16482     16486     16480     16478     16476     16488
     16480     16478     16476     16489     16480     16478     16476     16490
     16480     16482     16484     16496     16480     16482     16486     16495
     16482     16480     16478     16491     16482     16480     16478     16492
     16484     16482     16480     16493     16484     16482     16480     16494
     16484     16482     16486     16495     16486     16482     16480     16493
     16486     16482     16480     16494     16486     16482     16484     16496
     16488     16476     16478     16491     16488     16476     16478     16492
     16489     16476     16478     16491     16489     16476     16478     16492
     16490     16476     16478     16491     16490     16476     16478     16492
     16491     16478     16480     16493     16491     16478     16480     16494
     16492     16478     16480     16493     16492     16478     16480     16494
     16501     16503     16505     16507     16501     16503     16505     16518
     16501     16503     16505     16519     16503     16505     16507     16509
     16503     16505     16507     16511     16505     16503     16501     16513
     16505     16503     16501     16514     16505     16503     16501     16515
     16505     16507     16509     16521     16505     16507     16511     16520
     16507     16505     16503     16516     16507     16505     16503     16517
     16509     16507     16505     16518     16509     16507     16505     16519
     16509     16507     16511     16520     16511     16507     16505     16518
     16511     16507     16505     16519     16511     16507     16509     16521
     16513     16501     16503     16516     16513     16501     16503     16517
     16514     16501     16503     16516     16514     16501     16503     16517
     16515     16501     16503     16516     16515     16501     16503     16517
     16516     16503     16505     16518     16516     16503     16505     16519
     16517     16503     16505     16518     16517     16503     16505     16519
     16526     16528     16530     16532     16526     16528     16530     16543
     16526     16528     16530     16544     16528     16530     16532     16534
     16528     16530     16532     16536     16530     16528     16526     16538
     16530     16528     16526     16539     16530     16528     16526     16540
     16530     16532     16534     16546     16530     16532     16536     16545
     16532     16530     16528     16541     16532     16530     16528     16542
     16534     16532     16530     16543     16534     16532     16530     16544
     16534     16532     16536     16545     16536     16532     16530     16543
     16536     16532     16530     16544     16536     16532     16534     16546
     16538     16526     16528     16541     16538     16526     16528     16542
     16539     16526     16528     16541     16539     16526     16528     16542
     16540     16526     16528     16541     16540     16526     16528     16542
     16541     16528     16530     16543     16541     16528     16530     16544
     16542     16528     16530     16543     16542     16528     16530     16544
     16551     16553     16555     16557     16551     16553     16555     16568
     16551     16553     16555     16569     16553     16555     16557     16559
     16553     16555     16557     16561     16555     16553     16551     16563
     16555     16553     16551     16564     16555     16553     16551     16565
     16555     16557     16559     16571     16555     16557     16561     16570
     16557     16555     16553     16566     16557     16555     16553     16567
     16559     16557     16555     16568     16559     16557     16555     16569
     16559     16557     16561     16570     16561     16557     16555     16568
     16561     16557     16555     16569     16561     16557     16559     16571
     16563     16551     16553     16566     16563     16551     16553     16567
     16564     16551     16553     16566     16564     16551     16553     16567
     16565     16551     16553     16566     16565     16551     16553     16567
     16566     16553     16555     16568     16566     16553     16555     16569
     16567     16553     16555     16568     16567     16553     16555     16569
     16576     16578     16580     16582     16576     16578     16580     16593
     16576     16578     16580     16594     16578     16580     16582     16584
     16578     16580     16582     16586     16580     16578     16576     16588
     16580     16578     16576     16589     16580     16578     16576     16590
     16580     16582     16584     16596     16580     16582     16586     16595
     16582     16580     16578     16591     16582     16580     16578     16592
     16584     16582     16580     16593     16584     16582     16580     16594
     16584     16582     16586     16595     16586     16582     16580     16593
     16586     16582     16580     16594     16586     16582     16584     16596
     16588     16576     16578     16591     16588     16576     16578     16592
     16589     16576     16578     16591     16589     16576     16578     16592
     16590     16576     16578     16591     16590     16576     16578     16592
     16591     16578     16580     16593     16591     16578     16580     16594
     16592     16578     16580     16593     16592     16578     16580     16594
     16601     16603     16605     16607     16601     16603     16605     16618
     16601     16603     16605     16619     16603     16605     16607     16609
     16603     16605     16607     16611     16605     16603     16601     16613
     16605     16603     16601     16614     16605     16603     16601     16615
     16605     16607     16609     16621     16605     16607     16611     16620
     16607     16605     16603     16616     16607     16605     16603     16617
     16609     16607     16605     16618     16609     16607     16605     16619
     16609     16607     16611     16620     16611     16607     16605     16618
     16611     16607     16605     16619     16611     16607     16609     16621
     16613     16601     16603     16616     16613     16601     16603     16617
     16614     16601     16603     16616     16614     16601     16603     16617
     16615     16601     16603     16616     16615     16601     16603     16617
     16616     16603     16605     16618     16616     16603     16605     16619
     16617     16603     16605     16618     16617     16603     16605     16619
     16626     16628     16630     16632     16626     16628     16630     16643
     16626     16628     16630     16644     16628     16630     16632     16634
     16628     16630     16632     16636     16630     16628     16626     16638
     16630     16628     16626     16639     16630     16628     16626     16640
     16630     16632     16634     16646     16630     16632     16636     16645
     16632     16630     16628     16641     16632     16630     16628     16642
     16634     16632     16630     16643     16634     16632     16630     16644
     16634     16632     16636     16645     16636     16632     16630     16643
     16636     16632     16630     16644     16636     16632     16634     16646
     16638     16626     16628     16641     16638     16626     16628     16642
     16639     16626     16628     16641     16639     16626     16628     16642
     16640     16626     16628     16641     16640     16626     16628     16642
     16641     16628     16630     16643     16641     16628     16630     16644
     16642     16628     16630     16643     16642     16628     16630     16644
     16651     16653     16655     16657     16651     16653     16655     16668
     16651     16653     16655     16669     16653     16655     16657     16659
     16653     16655     16657     16661     16655     16653     16651     16663
     16655     16653     16651     16664     16655     16653     16651     16665
     16655     16657     16659     16671     16655     16657     16661     16670
     16657     16655     16653     16666     16657     16655     16653     16667
     16659     16657     16655     16668     16659     16657     16655     16669
     16659     16657     16661     16670     16661     16657     16655     16668
     16661     16657     16655     16669     16661     16657     16659     16671
     16663     16651     16653     16666     16663     16651     16653     16667
     16664     16651     16653     16666     16664     16651     16653     16667
     16665     16651     16653     16666     16665     16651     16653     16667
     16666     16653     16655     16668     16666     16653     16655     16669
     16667     16653     16655     16668     16667     16653     16655     16669
     16676     16678     16680     16682     16676     16678     16680     16693
     16676     16678     16680     16694     16678     16680     16682     16684
     16678     16680     16682     16686     16680     16678     16676     16688
     16680     16678     16676     16689     16680     16678     16676     16690
     16680     16682     16684     16696     16680     16682     16686     16695
     16682     16680     16678     16691     16682     16680     16678     16692
     16684     16682     16680     16693     16684     16682     16680     16694
     16684     16682     16686     16695     16686     16682     16680     16693
     16686     16682     16680     16694     16686     16682     16684     16696
     16688     16676     16678     16691     16688     16676     16678     16692
     16689     16676     16678     16691     16689     16676     16678     16692
     16690     16676     16678     16691     16690     16676     16678     16692
     16691     16678     16680     16693     16691     16678     16680     16694
     16692     16678     16680     16693     16692     16678     16680     16694
     16701     16703     16705     16707     16701     16703     16705     16718
     16701     16703     16705     16719     16703     16705     16707     16709
     16703     16705     16707     16711     16705     16703     16701     16713
     16705     16703     16701     16714     16705     16703     16701     16715
     16705     16707     16709     16721     16705     16707     16711     16720
     16707     16705     16703     16716     16707     16705     16703     16717
     16709     16707     16705     16718     16709     16707     16705     16719
     16709     16707     16711     16720     16711     16707     16705     16718
     16711     16707     16705     16719     16711     16707     16709     16721
     16713     16701     16703     16716     16713     16701     16703     16717
     16714     16701     16703     16716     16714     16701     16703     16717
     16715     16701     16703     16716     16715     16701     16703     16717
     16716     16703     16705     16718     16716     16703     16705     16719
     16717     16703     16705     16718     16717     16703     16705     16719
     16726     16728     16730     16732     16726     16728     16730     16743
     16726     16728     16730     16744     16728     16730     16732     16734
     16728     16730     16732     16736     16730     16728     16726     16738
     16730     16728     16726     16739     16730     16728     16726     16740
     16730     16732     16734     16746     16730     16732     16736     16745
     16732     16730     16728     16741     16732     16730     16728     16742
     16734     16732     16730     16743     16734     16732     16730     16744
     16734     16732     16736     16745     16736     16732     16730     16743
     16736     16732     16730     16744     16736     16732     16734     16746
     16738     16726     16728     16741     16738     16726     16728     16742
     16739     16726     16728     16741     16739     16726     16728     16742
     16740     16726     16728     16741     16740     16726     16728     16742
     16741     16728     16730     16743     16741     16728     16730     16744
     16742     16728     16730     16743     16742     16728     16730     16744
     16751     16753     16755     16757     16751     16753     16755     16768
     16751     16753     16755     16769     16753     16755     16757     16759
     16753     16755     16757     16761     16755     16753     16751     16763
     16755     16753     16751     16764     16755     16753     16751     16765
     16755     16757     16759     16771     16755     16757     16761     16770
     16757     16755     16753     16766     16757     16755     16753     16767
     16759     16757     16755     16768     16759     16757     16755     16769
     16759     16757     16761     16770     16761     16757     16755     16768
     16761     16757     16755     16769     16761     16757     16759     16771
     16763     16751     16753     16766     16763     16751     16753     16767
     16764     16751     16753     16766     16764     16751     16753     16767
     16765     16751     16753     16766     16765     16751     16753     16767
     16766     16753     16755     16768     16766     16753     16755     16769
     16767     16753     16755     16768     16767     16753     16755     16769
     16776     16778     16780     16782     16776     16778     16780     16793
     16776     16778     16780     16794     16778     16780     16782     16784
     16778     16780     16782     16786     16780     16778     16776     16788
     16780     16778     16776     16789     16780     16778     16776     16790
     16780     16782     16784     16796     16780     16782     16786     16795
     16782     16780     16778     16791     16782     16780     16778     16792
     16784     16782     16780     16793     16784     16782     16780     16794
     16784     16782     16786     16795     16786     16782     16780     16793
     16786     16782     16780     16794     16786     16782     16784     16796
     16788     16776     16778     16791     16788     16776     16778     16792
     16789     16776     16778     16791     16789     16776     16778     16792
     16790     16776     16778     16791     16790     16776     16778     16792
     16791     16778     16780     16793     16791     16778     16780     16794
     16792     16778     16780     16793     16792     16778     16780     16794
     16801     16803     16805     16807     16801     16803     16805     16818
     16801     16803     16805     16819     16803     16805     16807     16809
     16803     16805     16807     16811     16805     16803     16801     16813
     16805     16803     16801     16814     16805     16803     16801     16815
     16805     16807     16809     16821     16805     16807     16811     16820
     16807     16805     16803     16816     16807     16805     16803     16817
     16809     16807     16805     16818     16809     16807     16805     16819
     16809     16807     16811     16820     16811     16807     16805     16818
     16811     16807     16805     16819     16811     16807     16809     16821
     16813     16801     16803     16816     16813     16801     16803     16817
     16814     16801     16803     16816     16814     16801     16803     16817
     16815     16801     16803     16816     16815     16801     16803     16817
     16816     16803     16805     16818     16816     16803     16805     16819
     16817     16803     16805     16818     16817     16803     16805     16819
     16826     16828     16830     16832     16826     16828     16830     16843
     16826     16828     16830     16844     16828     16830     16832     16834
     16828     16830     16832     16836     16830     16828     16826     16838
     16830     16828     16826     16839     16830     16828     16826     16840
     16830     16832     16834     16846     16830     16832     16836     16845
     16832     16830     16828     16841     16832     16830     16828     16842
     16834     16832     16830     16843     16834     16832     16830     16844
     16834     16832     16836     16845     16836     16832     16830     16843
     16836     16832     16830     16844     16836     16832     16834     16846
     16838     16826     16828     16841     16838     16826     16828     16842
     16839     16826     16828     16841     16839     16826     16828     16842
     16840     16826     16828     16841     16840     16826     16828     16842
     16841     16828     16830     16843     16841     16828     16830     16844
     16842     16828     16830     16843     16842     16828     16830     16844
     16851     16853     16855     16857     16851     16853     16855     16868
     16851     16853     16855     16869     16853     16855     16857     16859
     16853     16855     16857     16861     16855     16853     16851     16863
     16855     16853     16851     16864     16855     16853     16851     16865
     16855     16857     16859     16871     16855     16857     16861     16870
     16857     16855     16853     16866     16857     16855     16853     16867
     16859     16857     16855     16868     16859     16857     16855     16869
     16859     16857     16861     16870     16861     16857     16855     16868
     16861     16857     16855     16869     16861     16857     16859     16871
     16863     16851     16853     16866     16863     16851     16853     16867
     16864     16851     16853     16866     16864     16851     16853     16867
     16865     16851     16853     16866     16865     16851     16853     16867
     16866     16853     16855     16868     16866     16853     16855     16869
     16867     16853     16855     16868     16867     16853     16855     16869
     16876     16878     16880     16882     16876     16878     16880     16893
     16876     16878     16880     16894     16878     16880     16882     16884
     16878     16880     16882     16886     16880     16878     16876     16888
     16880     16878     16876     16889     16880     16878     16876     16890
     16880     16882     16884     16896     16880     16882     16886     16895
     16882     16880     16878     16891     16882     16880     16878     16892
     16884     16882     16880     16893     16884     16882     16880     16894
     16884     16882     16886     16895     16886     16882     16880     16893
     16886     16882     16880     16894     16886     16882     16884     16896
     16888     16876     16878     16891     16888     16876     16878     16892
     16889     16876     16878     16891     16889     16876     16878     16892
     16890     16876     16878     16891     16890     16876     16878     16892
     16891     16878     16880     16893     16891     16878     16880     16894
     16892     16878     16880     16893     16892     16878     16880     16894
     16901     16903     16905     16907     16901     16903     16905     16918
     16901     16903     16905     16919     16903     16905     16907     16909
     16903     16905     16907     16911     16905     16903     16901     16913
     16905     16903     16901     16914     16905     16903     16901     16915
     16905     16907     16909     16921     16905     16907     16911     16920
     16907     16905     16903     16916     16907     16905     16903     16917
     16909     16907     16905     16918     16909     16907     16905     16919
     16909     16907     16911     16920     16911     16907     16905     16918
     16911     16907     16905     16919     16911     16907     16909     16921
     16913     16901     16903     16916     16913     16901     16903     16917
     16914     16901     16903     16916     16914     16901     16903     16917
     16915     16901     16903     16916     16915     16901     16903     16917
     16916     16903     16905     16918     16916     16903     16905     16919
     16917     16903     16905     16918     16917     16903     16905     16919
     16926     16928     16930     16932     16926     16928     16930     16943
     16926     16928     16930     16944     16928     16930     16932     16934
     16928     16930     16932     16936     16930     16928     16926     16938
     16930     16928     16926     16939     16930     16928     16926     16940
     16930     16932     16934     16946     16930     16932     16936     16945
     16932     16930     16928     16941     16932     16930     16928     16942
     16934     16932     16930     16943     16934     16932     16930     16944
     16934     16932     16936     16945     16936     16932     16930     16943
     16936     16932     16930     16944     16936     16932     16934     16946
     16938     16926     16928     16941     16938     16926     16928     16942
     16939     16926     16928     16941     16939     16926     16928     16942
     16940     16926     16928     16941     16940     16926     16928     16942
     16941     16928     16930     16943     16941     16928     16930     16944
     16942     16928     16930     16943     16942     16928     16930     16944
     16951     16953     16955     16957     16951     16953     16955     16968
     16951     16953     16955     16969     16953     16955     16957     16959
     16953     16955     16957     16961     16955     16953     16951     16963
     16955     16953     16951     16964     16955     16953     16951     16965
     16955     16957     16959     16971     16955     16957     16961     16970
     16957     16955     16953     16966     16957     16955     16953     16967
     16959     16957     16955     16968     16959     16957     16955     16969
     16959     16957     16961     16970     16961     16957     16955     16968
     16961     16957     16955     16969     16961     16957     16959     16971
     16963     16951     16953     16966     16963     16951     16953     16967
     16964     16951     16953     16966     16964     16951     16953     16967
     16965     16951     16953     16966     16965     16951     16953     16967
     16966     16953     16955     16968     16966     16953     16955     16969
     16967     16953     16955     16968     16967     16953     16955     16969
     16976     16978     16980     16982     16976     16978     16980     16993
     16976     16978     16980     16994     16978     16980     16982     16984
     16978     16980     16982     16986     16980     16978     16976     16988
     16980     16978     16976     16989     16980     16978     16976     16990
     16980     16982     16984     16996     16980     16982     16986     16995
     16982     16980     16978     16991     16982     16980     16978     16992
     16984     16982     16980     16993     16984     16982     16980     16994
     16984     16982     16986     16995     16986     16982     16980     16993
     16986     16982     16980     16994     16986     16982     16984     16996
     16988     16976     16978     16991     16988     16976     16978     16992
     16989     16976     16978     16991     16989     16976     16978     16992
     16990     16976     16978     16991     16990     16976     16978     16992
     16991     16978     16980     16993     16991     16978     16980     16994
     16992     16978     16980     16993     16992     16978     16980     16994
     17001     17003     17005     17007     17001     17003     17005     17018
     17001     17003     17005     17019     17003     17005     17007     17009
     17003     17005     17007     17011     17005     17003     17001     17013
     17005     17003     17001     17014     17005     17003     17001     17015
     17005     17007     17009     17021     17005     17007     17011     17020
     17007     17005     17003     17016     17007     17005     17003     17017
     17009     17007     17005     17018     17009     17007     17005     17019
     17009     17007     17011     17020     17011     17007     17005     17018
     17011     17007     17005     17019     17011     17007     17009     17021
     17013     17001     17003     17016     17013     17001     17003     17017
     17014     17001     17003     17016     17014     17001     17003     17017
     17015     17001     17003     17016     17015     17001     17003     17017
     17016     17003     17005     17018     17016     17003     17005     17019
     17017     17003     17005     17018     17017     17003     17005     17019
     17026     17028     17030     17032     17026     17028     17030     17043
     17026     17028     17030     17044     17028     17030     17032     17034
     17028     17030     17032     17036     17030     17028     17026     17038
     17030     17028     17026     17039     17030     17028     17026     17040
     17030     17032     17034     17046     17030     17032     17036     17045
     17032     17030     17028     17041     17032     17030     17028     17042
     17034     17032     17030     17043     17034     17032     17030     17044
     17034     17032     17036     17045     17036     17032     17030     17043
     17036     17032     17030     17044     17036     17032     17034     17046
     17038     17026     17028     17041     17038     17026     17028     17042
     17039     17026     17028     17041     17039     17026     17028     17042
     17040     17026     17028     17041     17040     17026     17028     17042
     17041     17028     17030     17043     17041     17028     17030     17044
     17042     17028     17030     17043     17042     17028     17030     17044
     17051     17053     17055     17057     17051     17053     17055     17068
     17051     17053     17055     17069     17053     17055     17057     17059
     17053     17055     17057     17061     17055     17053     17051     17063
     17055     17053     17051     17064     17055     17053     17051     17065
     17055     17057     17059     17071     17055     17057     17061     17070
     17057     17055     17053     17066     17057     17055     17053     17067
     17059     17057     17055     17068     17059     17057     17055     17069
     17059     17057     17061     17070     17061     17057     17055     17068
     17061     17057     17055     17069     17061     17057     17059     17071
     17063     17051     17053     17066     17063     17051     17053     17067
     17064     17051     17053     17066     17064     17051     17053     17067
     17065     17051     17053     17066     17065     17051     17053     17067
     17066     17053     17055     17068     17066     17053     17055     17069
     17067     17053     17055     17068     17067     17053     17055     17069
     17076     17078     17080     17082     17076     17078     17080     17093
     17076     17078     17080     17094     17078     17080     17082     17084
     17078     17080     17082     17086     17080     17078     17076     17088
     17080     17078     17076     17089     17080     17078     17076     17090
     17080     17082     17084     17096     17080     17082     17086     17095
     17082     17080     17078     17091     17082     17080     17078     17092
     17084     17082     17080     17093     17084     17082     17080     17094
     17084     17082     17086     17095     17086     17082     17080     17093
     17086     17082     17080     17094     17086     17082     17084     17096
     17088     17076     17078     17091     17088     17076     17078     17092
     17089     17076     17078     17091     17089     17076     17078     17092
     17090     17076     17078     17091     17090     17076     17078     17092
     17091     17078     17080     17093     17091     17078     17080     17094
     17092     17078     17080     17093     17092     17078     17080     17094
     17101     17103     17105     17107     17101     17103     17105     17118
     17101     17103     17105     17119     17103     17105     17107     17109
     17103     17105     17107     17111     17105     17103     17101     17113
     17105     17103     17101     17114     17105     17103     17101     17115
     17105     17107     17109     17121     17105     17107     17111     17120
     17107     17105     17103     17116     17107     17105     17103     17117
     17109     17107     17105     17118     17109     17107     17105     17119
     17109     17107     17111     17120     17111     17107     17105     17118
     17111     17107     17105     17119     17111     17107     17109     17121
     17113     17101     17103     17116     17113     17101     17103     17117
     17114     17101     17103     17116     17114     17101     17103     17117
     17115     17101     17103     17116     17115     17101     17103     17117
     17116     17103     17105     17118     17116     17103     17105     17119
     17117     17103     17105     17118     17117     17103     17105     17119
     17126     17128     17130     17132     17126     17128     17130     17143
     17126     17128     17130     17144     17128     17130     17132     17134
     17128     17130     17132     17136     17130     17128     17126     17138
     17130     17128     17126     17139     17130     17128     17126     17140
     17130     17132     17134     17146     17130     17132     17136     17145
     17132     17130     17128     17141     17132     17130     17128     17142
     17134     17132     17130     17143     17134     17132     17130     17144
     17134     17132     17136     17145     17136     17132     17130     17143
     17136     17132     17130     17144     17136     17132     17134     17146
     17138     17126     17128     17141     17138     17126     17128     17142
     17139     17126     17128     17141     17139     17126     17128     17142
     17140     17126     17128     17141     17140     17126     17128     17142
     17141     17128     17130     17143     17141     17128     17130     17144
     17142     17128     17130     17143     17142     17128     17130     17144
     17151     17153     17155     17157     17151     17153     17155     17168
     17151     17153     17155     17169     17153     17155     17157     17159
     17153     17155     17157     17161     17155     17153     17151     17163
     17155     17153     17151     17164     17155     17153     17151     17165
     17155     17157     17159     17171     17155     17157     17161     17170
     17157     17155     17153     17166     17157     17155     17153     17167
     17159     17157     17155     17168     17159     17157     17155     17169
     17159     17157     17161     17170     17161     17157     17155     17168
     17161     17157     17155     17169     17161     17157     17159     17171
     17163     17151     17153     17166     17163     17151     17153     17167
     17164     17151     17153     17166     17164     17151     17153     17167
     17165     17151     17153     17166     17165     17151     17153     17167
     17166     17153     17155     17168     17166     17153     17155     17169
     17167     17153     17155     17168     17167     17153     17155     17169
     17176     17178     17180     17182     17176     17178     17180     17193
     17176     17178     17180     17194     17178     17180     17182     17184
     17178     17180     17182     17186     17180     17178     17176     17188
     17180     17178     17176     17189     17180     17178     17176     17190
     17180     17182     17184     17196     17180     17182     17186     17195
     17182     17180     17178     17191     17182     17180     17178     17192
     17184     17182     17180     17193     17184     17182     17180     17194
     17184     17182     17186     17195     17186     17182     17180     17193
     17186     17182     17180     17194     17186     17182     17184     17196
     17188     17176     17178     17191     17188     17176     17178     17192
     17189     17176     17178     17191     17189     17176     17178     17192
     17190     17176     17178     17191     17190     17176     17178     17192
     17191     17178     17180     17193     17191     17178     17180     17194
     17192     17178     17180     17193     17192     17178     17180     17194
     17201     17203     17205     17207     17201     17203     17205     17218
     17201     17203     17205     17219     17203     17205     17207     17209
     17203     17205     17207     17211     17205     17203     17201     17213
     17205     17203     17201     17214     17205     17203     17201     17215
     17205     17207     17209     17221     17205     17207     17211     17220
     17207     17205     17203     17216     17207     17205     17203     17217
     17209     17207     17205     17218     17209     17207     17205     17219
     17209     17207     17211     17220     17211     17207     17205     17218
     17211     17207     17205     17219     17211     17207     17209     17221
     17213     17201     17203     17216     17213     17201     17203     17217
     17214     17201     17203     17216     17214     17201     17203     17217
     17215     17201     17203     17216     17215     17201     17203     17217
     17216     17203     17205     17218     17216     17203     17205     17219
     17217     17203     17205     17218     17217     17203     17205     17219
     17226     17228     17230     17232     17226     17228     17230     17243
     17226     17228     17230     17244     17228     17230     17232     17234
     17228     17230     17232     17236     17230     17228     17226     17238
     17230     17228     17226     17239     17230     17228     17226     17240
     17230     17232     17234     17246     17230     17232     17236     17245
     17232     17230     17228     17241     17232     17230     17228     17242
     17234     17232     17230     17243     17234     17232     17230     17244
     17234     17232     17236     17245     17236     17232     17230     17243
     17236     17232     17230     17244     17236     17232     17234     17246
     17238     17226     17228     17241     17238     17226     17228     17242
     17239     17226     17228     17241     17239     17226     17228     17242
     17240     17226     17228     17241     17240     17226     17228     17242
     17241     17228     17230     17243     17241     17228     17230     17244
     17242     17228     17230     17243     17242     17228     17230     17244
     17251     17253     17255     17257     17251     17253     17255     17268
     17251     17253     17255     17269     17253     17255     17257     17259
     17253     17255     17257     17261     17255     17253     17251     17263
     17255     17253     17251     17264     17255     17253     17251     17265
     17255     17257     17259     17271     17255     17257     17261     17270
     17257     17255     17253     17266     17257     17255     17253     17267
     17259     17257     17255     17268     17259     17257     17255     17269
     17259     17257     17261     17270     17261     17257     17255     17268
     17261     17257     17255     17269     17261     17257     17259     17271
     17263     17251     17253     17266     17263     17251     17253     17267
     17264     17251     17253     17266     17264     17251     17253     17267
     17265     17251     17253     17266     17265     17251     17253     17267
     17266     17253     17255     17268     17266     17253     17255     17269
     17267     17253     17255     17268     17267     17253     17255     17269
     17276     17278     17280     17282     17276     17278     17280     17293
     17276     17278     17280     17294     17278     17280     17282     17284
     17278     17280     17282     17286     17280     17278     17276     17288
     17280     17278     17276     17289     17280     17278     17276     17290
     17280     17282     17284     17296     17280     17282     17286     17295
     17282     17280     17278     17291     17282     17280     17278     17292
     17284     17282     17280     17293     17284     17282     17280     17294
     17284     17282     17286     17295     17286     17282     17280     17293
     17286     17282     17280     17294     17286     17282     17284     17296
     17288     17276     17278     17291     17288     17276     17278     17292
     17289     17276     17278     17291     17289     17276     17278     17292
     17290     17276     17278     17291     17290     17276     17278     17292
     17291     17278     17280     17293     17291     17278     17280     17294
     17292     17278     17280     17293     17292     17278     17280     17294
     17301     17303     17305     17307     17301     17303     17305     17318
     17301     17303     17305     17319     17303     17305     17307     17309
     17303     17305     17307     17311     17305     17303     17301     17313
     17305     17303     17301     17314     17305     17303     17301     17315
     17305     17307     17309     17321     17305     17307     17311     17320
     17307     17305     17303     17316     17307     17305     17303     17317
     17309     17307     17305     17318     17309     17307     17305     17319
     17309     17307     17311     17320     17311     17307     17305     17318
     17311     17307     17305     17319     17311     17307     17309     17321
     17313     17301     17303     17316     17313     17301     17303     17317
     17314     17301     17303     17316     17314     17301     17303     17317
     17315     17301     17303     17316     17315     17301     17303     17317
     17316     17303     17305     17318     17316     17303     17305     17319
     17317     17303     17305     17318     17317     17303     17305     17319
     17326     17328     17330     17332     17326     17328     17330     17343
     17326     17328     17330     17344     17328     17330     17332     17334
     17328     17330     17332     17336     17330     17328     17326     17338
     17330     17328     17326     17339     17330     17328     17326     17340
     17330     17332     17334     17346     17330     17332     17336     17345
     17332     17330     17328     17341     17332     17330     17328     17342
     17334     17332     17330     17343     17334     17332     17330     17344
     17334     17332     17336     17345     17336     17332     17330     17343
     17336     17332     17330     17344     17336     17332     17334     17346
     17338     17326     17328     17341     17338     17326     17328     17342
     17339     17326     17328     17341     17339     17326     17328     17342
     17340     17326     17328     17341     17340     17326     17328     17342
     17341     17328     17330     17343     17341     17328     17330     17344
     17342     17328     17330     17343     17342     17328     17330     17344
     17351     17353     17355     17357     17351     17353     17355     17368
     17351     17353     17355     17369     17353     17355     17357     17359
     17353     17355     17357     17361     17355     17353     17351     17363
     17355     17353     17351     17364     17355     17353     17351     17365
     17355     17357     17359     17371     17355     17357     17361     17370
     17357     17355     17353     17366     17357     17355     17353     17367
     17359     17357     17355     17368     17359     17357     17355     17369
     17359     17357     17361     17370     17361     17357     17355     17368
     17361     17357     17355     17369     17361     17357     17359     17371
     17363     17351     17353     17366     17363     17351     17353     17367
     17364     17351     17353     17366     17364     17351     17353     17367
     17365     17351     17353     17366     17365     17351     17353     17367
     17366     17353     17355     17368     17366     17353     17355     17369
     17367     17353     17355     17368     17367     17353     17355     17369
     17376     17378     17380     17382     17376     17378     17380     17393
     17376     17378     17380     17394     17378     17380     17382     17384
     17378     17380     17382     17386     17380     17378     17376     17388
     17380     17378     17376     17389     17380     17378     17376     17390
     17380     17382     17384     17396     17380     17382     17386     17395
     17382     17380     17378     17391     17382     17380     17378     17392
     17384     17382     17380     17393     17384     17382     17380     17394
     17384     17382     17386     17395     17386     17382     17380     17393
     17386     17382     17380     17394     17386     17382     17384     17396
     17388     17376     17378     17391     17388     17376     17378     17392
     17389     17376     17378     17391     17389     17376     17378     17392
     17390     17376     17378     17391     17390     17376     17378     17392
     17391     17378     17380     17393     17391     17378     17380     17394
     17392     17378     17380     17393     17392     17378     17380     17394
     17401     17403     17405     17407     17401     17403     17405     17418
     17401     17403     17405     17419     17403     17405     17407     17409
     17403     17405     17407     17411     17405     17403     17401     17413
     17405     17403     17401     17414     17405     17403     17401     17415
     17405     17407     17409     17421     17405     17407     17411     17420
     17407     17405     17403     17416     17407     17405     17403     17417
     17409     17407     17405     17418     17409     17407     17405     17419
     17409     17407     17411     17420     17411     17407     17405     17418
     17411     17407     17405     17419     17411     17407     17409     17421
     17413     17401     17403     17416     17413     17401     17403     17417
     17414     17401     17403     17416     17414     17401     17403     17417
     17415     17401     17403     17416     17415     17401     17403     17417
     17416     17403     17405     17418     17416     17403     17405     17419
     17417     17403     17405     17418     17417     17403     17405     17419
     17426     17428     17430     17432     17426     17428     17430     17443
     17426     17428     17430     17444     17428     17430     17432     17434
     17428     17430     17432     17436     17430     17428     17426     17438
     17430     17428     17426     17439     17430     17428     17426     17440
     17430     17432     17434     17446     17430     17432     17436     17445
     17432     17430     17428     17441     17432     17430     17428     17442
     17434     17432     17430     17443     17434     17432     17430     17444
     17434     17432     17436     17445     17436     17432     17430     17443
     17436     17432     17430     17444     17436     17432     17434     17446
     17438     17426     17428     17441     17438     17426     17428     17442
     17439     17426     17428     17441     17439     17426     17428     17442
     17440     17426     17428     17441     17440     17426     17428     17442
     17441     17428     17430     17443     17441     17428     17430     17444
     17442     17428     17430     17443     17442     17428     17430     17444
     17451     17453     17455     17457     17451     17453     17455     17468
     17451     17453     17455     17469     17453     17455     17457     17459
     17453     17455     17457     17461     17455     17453     17451     17463
     17455     17453     17451     17464     17455     17453     17451     17465
     17455     17457     17459     17471     17455     17457     17461     17470
     17457     17455     17453     17466     17457     17455     17453     17467
     17459     17457     17455     17468     17459     17457     17455     17469
     17459     17457     17461     17470     17461     17457     17455     17468
     17461     17457     17455     17469     17461     17457     17459     17471
     17463     17451     17453     17466     17463     17451     17453     17467
     17464     17451     17453     17466     17464     17451     17453     17467
     17465     17451     17453     17466     17465     17451     17453     17467
     17466     17453     17455     17468     17466     17453     17455     17469
     17467     17453     17455     17468     17467     17453     17455     17469
     17476     17478     17480     17482     17476     17478     17480     17493
     17476     17478     17480     17494     17478     17480     17482     17484
     17478     17480     17482     17486     17480     17478     17476     17488
     17480     17478     17476     17489     17480     17478     17476     17490
     17480     17482     17484     17496     17480     17482     17486     17495
     17482     17480     17478     17491     17482     17480     17478     17492
     17484     17482     17480     17493     17484     17482     17480     17494
     17484     17482     17486     17495     17486     17482     17480     17493
     17486     17482     17480     17494     17486     17482     17484     17496
     17488     17476     17478     17491     17488     17476     17478     17492
     17489     17476     17478     17491     17489     17476     17478     17492
     17490     17476     17478     17491     17490     17476     17478     17492
     17491     17478     17480     17493     17491     17478     17480     17494
     17492     17478     17480     17493     17492     17478     17480     17494
     17501     17503     17505     17507     17501     17503     17505     17518
     17501     17503     17505     17519     17503     17505     17507     17509
     17503     17505     17507     17511     17505     17503     17501     17513
     17505     17503     17501     17514     17505     17503     17501     17515
     17505     17507     17509     17521     17505     17507     17511     17520
     17507     17505     17503     17516     17507     17505     17503     17517
     17509     17507     17505     17518     17509     17507     17505     17519
     17509     17507     17511     17520     17511     17507     17505     17518
     17511     17507     17505     17519     17511     17507     17509     17521
     17513     17501     17503     17516     17513     17501     17503     17517
     17514     17501     17503     17516     17514     17501     17503     17517
     17515     17501     17503     17516     17515     17501     17503     17517
     17516     17503     17505     17518     17516     17503     17505     17519
     17517     17503     17505     17518     17517     17503     17505     17519
     17526     17528     17530     17532     17526     17528     17530     17543
     17526     17528     17530     17544     17528     17530     17532     17534
     17528     17530     17532     17536     17530     17528     17526     17538
     17530     17528     17526     17539     17530     17528     17526     17540
     17530     17532     17534     17546     17530     17532     17536     17545
     17532     17530     17528     17541     17532     17530     17528     17542
     17534     17532     17530     17543     17534     17532     17530     17544
     17534     17532     17536     17545     17536     17532     17530     17543
     17536     17532     17530     17544     17536     17532     17534     17546
     17538     17526     17528     17541     17538     17526     17528     17542
     17539     17526     17528     17541     17539     17526     17528     17542
     17540     17526     17528     17541     17540     17526     17528     17542
     17541     17528     17530     17543     17541     17528     17530     17544
     17542     17528     17530     17543     17542     17528     17530     17544
     17551     17553     17555     17557     17551     17553     17555     17568
     17551     17553     17555     17569     17553     17555     17557     17559
     17553     17555     17557     17561     17555     17553     17551     17563
     17555     17553     17551     17564     17555     17553     17551     17565
     17555     17557     17559     17571     17555     17557     17561     17570
     17557     17555     17553     17566     17557     17555     17553     17567
     17559     17557     17555     17568     17559     17557     17555     17569
     17559     17557     17561     17570     17561     17557     17555     17568
     17561     17557     17555     17569     17561     17557     17559     17571
     17563     17551     17553     17566     17563     17551     17553     17567
     17564     17551     17553     17566     17564     17551     17553     17567
     17565     17551     17553     17566     17565     17551     17553     17567
     17566     17553     17555     17568     17566     17553     17555     17569
     17567     17553     17555     17568     17567     17553     17555     17569
     17576     17578     17580     17582     17576     17578     17580     17593
     17576     17578     17580     17594     17578     17580     17582     17584
     17578     17580     17582     17586     17580     17578     17576     17588
     17580     17578     17576     17589     17580     17578     17576     17590
     17580     17582     17584     17596     17580     17582     17586     17595
     17582     17580     17578     17591     17582     17580     17578     17592
     17584     17582     17580     17593     17584     17582     17580     17594
     17584     17582     17586     17595     17586     17582     17580     17593
     17586     17582     17580     17594     17586     17582     17584     17596
     17588     17576     17578     17591     17588     17576     17578     17592
     17589     17576     17578     17591     17589     17576     17578     17592
     17590     17576     17578     17591     17590     17576     17578     17592
     17591     17578     17580     17593     17591     17578     17580     17594
     17592     17578     17580     17593     17592     17578     17580     17594
     17601     17603     17605     17607     17601     17603     17605     17618
     17601     17603     17605     17619     17603     17605     17607     17609
     17603     17605     17607     17611     17605     17603     17601     17613
     17605     17603     17601     17614     17605     17603     17601     17615
     17605     17607     17609     17621     17605     17607     17611     17620
     17607     17605     17603     17616     17607     17605     17603     17617
     17609     17607     17605     17618     17609     17607     17605     17619
     17609     17607     17611     17620     17611     17607     17605     17618
     17611     17607     17605     17619     17611     17607     17609     17621
     17613     17601     17603     17616     17613     17601     17603     17617
     17614     17601     17603     17616     17614     17601     17603     17617
     17615     17601     17603     17616     17615     17601     17603     17617
     17616     17603     17605     17618     17616     17603     17605     17619
     17617     17603     17605     17618     17617     17603     17605     17619
     17626     17628     17630     17632     17626     17628     17630     17643
     17626     17628     17630     17644     17628     17630     17632     17634
     17628     17630     17632     17636     17630     17628     17626     17638
     17630     17628     17626     17639     17630     17628     17626     17640
     17630     17632     17634     17646     17630     17632     17636     17645
     17632     17630     17628     17641     17632     17630     17628     17642
     17634     17632     17630     17643     17634     17632     17630     17644
     17634     17632     17636     17645     17636     17632     17630     17643
     17636     17632     17630     17644     17636     17632     17634     17646
     17638     17626     17628     17641     17638     17626     17628     17642
     17639     17626     17628     17641     17639     17626     17628     17642
     17640     17626     17628     17641     17640     17626     17628     17642
     17641     17628     17630     17643     17641     17628     17630     17644
     17642     17628     17630     17643     17642     17628     17630     17644
     17651     17653     17655     17657     17651     17653     17655     17668
     17651     17653     17655     17669     17653     17655     17657     17659
     17653     17655     17657     17661     17655     17653     17651     17663
     17655     17653     17651     17664     17655     17653     17651     17665
     17655     17657     17659     17671     17655     17657     17661     17670
     17657     17655     17653     17666     17657     17655     17653     17667
     17659     17657     17655     17668     17659     17657     17655     17669
     17659     17657     17661     17670     17661     17657     17655     17668
     17661     17657     17655     17669     17661     17657     17659     17671
     17663     17651     17653     17666     17663     17651     17653     17667
     17664     17651     17653     17666     17664     17651     17653     17667
     17665     17651     17653     17666     17665     17651     17653     17667
     17666     17653     17655     17668     17666     17653     17655     17669
     17667     17653     17655     17668     17667     17653     17655     17669
     17676     17678     17680     17682     17676     17678     17680     17693
     17676     17678     17680     17694     17678     17680     17682     17684
     17678     17680     17682     17686     17680     17678     17676     17688
     17680     17678     17676     17689     17680     17678     17676     17690
     17680     17682     17684     17696     17680     17682     17686     17695
     17682     17680     17678     17691     17682     17680     17678     17692
     17684     17682     17680     17693     17684     17682     17680     17694
     17684     17682     17686     17695     17686     17682     17680     17693
     17686     17682     17680     17694     17686     17682     17684     17696
     17688     17676     17678     17691     17688     17676     17678     17692
     17689     17676     17678     17691     17689     17676     17678     17692
     17690     17676     17678     17691     17690     17676     17678     17692
     17691     17678     17680     17693     17691     17678     17680     17694
     17692     17678     17680     17693     17692     17678     17680     17694
     17701     17703     17705     17707     17701     17703     17705     17718
     17701     17703     17705     17719     17703     17705     17707     17709
     17703     17705     17707     17711     17705     17703     17701     17713
     17705     17703     17701     17714     17705     17703     17701     17715
     17705     17707     17709     17721     17705     17707     17711     17720
     17707     17705     17703     17716     17707     17705     17703     17717
     17709     17707     17705     17718     17709     17707     17705     17719
     17709     17707     17711     17720     17711     17707     17705     17718
     17711     17707     17705     17719     17711     17707     17709     17721
     17713     17701     17703     17716     17713     17701     17703     17717
     17714     17701     17703     17716     17714     17701     17703     17717
     17715     17701     17703     17716     17715     17701     17703     17717
     17716     17703     17705     17718     17716     17703     17705     17719
     17717     17703     17705     17718     17717     17703     17705     17719
     17726     17728     17730     17732     17726     17728     17730     17743
     17726     17728     17730     17744     17728     17730     17732     17734
     17728     17730     17732     17736     17730     17728     17726     17738
     17730     17728     17726     17739     17730     17728     17726     17740
     17730     17732     17734     17746     17730     17732     17736     17745
     17732     17730     17728     17741     17732     17730     17728     17742
     17734     17732     17730     17743     17734     17732     17730     17744
     17734     17732     17736     17745     17736     17732     17730     17743
     17736     17732     17730     17744     17736     17732     17734     17746
     17738     17726     17728     17741     17738     17726     17728     17742
     17739     17726     17728     17741     17739     17726     17728     17742
     17740     17726     17728     17741     17740     17726     17728     17742
     17741     17728     17730     17743     17741     17728     17730     17744
     17742     17728     17730     17743     17742     17728     17730     17744
     17751     17753     17755     17757     17751     17753     17755     17768
     17751     17753     17755     17769     17753     17755     17757     17759
     17753     17755     17757     17761     17755     17753     17751     17763
     17755     17753     17751     17764     17755     17753     17751     17765
     17755     17757     17759     17771     17755     17757     17761     17770
     17757     17755     17753     17766     17757     17755     17753     17767
     17759     17757     17755     17768     17759     17757     17755     17769
     17759     17757     17761     17770     17761     17757     17755     17768
     17761     17757     17755     17769     17761     17757     17759     17771
     17763     17751     17753     17766     17763     17751     17753     17767
     17764     17751     17753     17766     17764     17751     17753     17767
     17765     17751     17753     17766     17765     17751     17753     17767
     17766     17753     17755     17768     17766     17753     17755     17769
     17767     17753     17755     17768     17767     17753     17755     17769
     17776     17778     17780     17782     17776     17778     17780     17793
     17776     17778     17780     17794     17778     17780     17782     17784
     17778     17780     17782     17786     17780     17778     17776     17788
     17780     17778     17776     17789     17780     17778     17776     17790
     17780     17782     17784     17796     17780     17782     17786     17795
     17782     17780     17778     17791     17782     17780     17778     17792
     17784     17782     17780     17793     17784     17782     17780     17794
     17784     17782     17786     17795     17786     17782     17780     17793
     17786     17782     17780     17794     17786     17782     17784     17796
     17788     17776     17778     17791     17788     17776     17778     17792
     17789     17776     17778     17791     17789     17776     17778     17792
     17790     17776     17778     17791     17790     17776     17778     17792
     17791     17778     17780     17793     17791     17778     17780     17794
     17792     17778     17780     17793     17792     17778     17780     17794
     17801     17803     17805     17807     17801     17803     17805     17818
     17801     17803     17805     17819     17803     17805     17807     17809
     17803     17805     17807     17811     17805     17803     17801     17813
     17805     17803     17801     17814     17805     17803     17801     17815
     17805     17807     17809     17821     17805     17807     17811     17820
     17807     17805     17803     17816     17807     17805     17803     17817
     17809     17807     17805     17818     17809     17807     17805     17819
     17809     17807     17811     17820     17811     17807     17805     17818
     17811     17807     17805     17819     17811     17807     17809     17821
     17813     17801     17803     17816     17813     17801     17803     17817
     17814     17801     17803     17816     17814     17801     17803     17817
     17815     17801     17803     17816     17815     17801     17803     17817
     17816     17803     17805     17818     17816     17803     17805     17819
     17817     17803     17805     17818     17817     17803     17805     17819
     17826     17828     17830     17832     17826     17828     17830     17843
     17826     17828     17830     17844     17828     17830     17832     17834
     17828     17830     17832     17836     17830     17828     17826     17838
     17830     17828     17826     17839     17830     17828     17826     17840
     17830     17832     17834     17846     17830     17832     17836     17845
     17832     17830     17828     17841     17832     17830     17828     17842
     17834     17832     17830     17843     17834     17832     17830     17844
     17834     17832     17836     17845     17836     17832     17830     17843
     17836     17832     17830     17844     17836     17832     17834     17846
     17838     17826     17828     17841     17838     17826     17828     17842
     17839     17826     17828     17841     17839     17826     17828     17842
     17840     17826     17828     17841     17840     17826     17828     17842
     17841     17828     17830     17843     17841     17828     17830     17844
     17842     17828     17830     17843     17842     17828     17830     17844
     17851     17853     17855     17857     17851     17853     17855     17868
     17851     17853     17855     17869     17853     17855     17857     17859
     17853     17855     17857     17861     17855     17853     17851     17863
     17855     17853     17851     17864     17855     17853     17851     17865
     17855     17857     17859     17871     17855     17857     17861     17870
     17857     17855     17853     17866     17857     17855     17853     17867
     17859     17857     17855     17868     17859     17857     17855     17869
     17859     17857     17861     17870     17861     17857     17855     17868
     17861     17857     17855     17869     17861     17857     17859     17871
     17863     17851     17853     17866     17863     17851     17853     17867
     17864     17851     17853     17866     17864     17851     17853     17867
     17865     17851     17853     17866     17865     17851     17853     17867
     17866     17853     17855     17868     17866     17853     17855     17869
     17867     17853     17855     17868     17867     17853     17855     17869
     17876     17878     17880     17882     17876     17878     17880     17893
     17876     17878     17880     17894     17878     17880     17882     17884
     17878     17880     17882     17886     17880     17878     17876     17888
     17880     17878     17876     17889     17880     17878     17876     17890
     17880     17882     17884     17896     17880     17882     17886     17895
     17882     17880     17878     17891     17882     17880     17878     17892
     17884     17882     17880     17893     17884     17882     17880     17894
     17884     17882     17886     17895     17886     17882     17880     17893
     17886     17882     17880     17894     17886     17882     17884     17896
     17888     17876     17878     17891     17888     17876     17878     17892
     17889     17876     17878     17891     17889     17876     17878     17892
     17890     17876     17878     17891     17890     17876     17878     17892
     17891     17878     17880     17893     17891     17878     17880     17894
     17892     17878     17880     17893     17892     17878     17880     17894
     17901     17903     17905     17907     17901     17903     17905     17918
     17901     17903     17905     17919     17903     17905     17907     17909
     17903     17905     17907     17911     17905     17903     17901     17913
     17905     17903     17901     17914     17905     17903     17901     17915
     17905     17907     17909     17921     17905     17907     17911     17920
     17907     17905     17903     17916     17907     17905     17903     17917
     17909     17907     17905     17918     17909     17907     17905     17919
     17909     17907     17911     17920     17911     17907     17905     17918
     17911     17907     17905     17919     17911     17907     17909     17921
     17913     17901     17903     17916     17913     17901     17903     17917
     17914     17901     17903     17916     17914     17901     17903     17917
     17915     17901     17903     17916     17915     17901     17903     17917
     17916     17903     17905     17918     17916     17903     17905     17919
     17917     17903     17905     17918     17917     17903     17905     17919
     17926     17928     17930     17932     17926     17928     17930     17943
     17926     17928     17930     17944     17928     17930     17932     17934
     17928     17930     17932     17936     17930     17928     17926     17938
     17930     17928     17926     17939     17930     17928     17926     17940
     17930     17932     17934     17946     17930     17932     17936     17945
     17932     17930     17928     17941     17932     17930     17928     17942
     17934     17932     17930     17943     17934     17932     17930     17944
     17934     17932     17936     17945     17936     17932     17930     17943
     17936     17932     17930     17944     17936     17932     17934     17946
     17938     17926     17928     17941     17938     17926     17928     17942
     17939     17926     17928     17941     17939     17926     17928     17942
     17940     17926     17928     17941     17940     17926     17928     17942
     17941     17928     17930     17943     17941     17928     17930     17944
     17942     17928     17930     17943     17942     17928     17930     17944
     17951     17953     17955     17957     17951     17953     17955     17968
     17951     17953     17955     17969     17953     17955     17957     17959
     17953     17955     17957     17961     17955     17953     17951     17963
     17955     17953     17951     17964     17955     17953     17951     17965
     17955     17957     17959     17971     17955     17957     17961     17970
     17957     17955     17953     17966     17957     17955     17953     17967
     17959     17957     17955     17968     17959     17957     17955     17969
     17959     17957     17961     17970     17961     17957     17955     17968
     17961     17957     17955     17969     17961     17957     17959     17971
     17963     17951     17953     17966     17963     17951     17953     17967
     17964     17951     17953     17966     17964     17951     17953     17967
     17965     17951     17953     17966     17965     17951     17953     17967
     17966     17953     17955     17968     17966     17953     17955     17969
     17967     17953     17955     17968     17967     17953     17955     17969
     17976     17978     17980     17982     17976     17978     17980     17993
     17976     17978     17980     17994     17978     17980     17982     17984
     17978     17980     17982     17986     17980     17978     17976     17988
     17980     17978     17976     17989     17980     17978     17976     17990
     17980     17982     17984     17996     17980     17982     17986     17995
     17982     17980     17978     17991     17982     17980     17978     17992
     17984     17982     17980     17993     17984     17982     17980     17994
     17984     17982     17986     17995     17986     17982     17980     17993
     17986     17982     17980     17994     17986     17982     17984     17996
     17988     17976     17978     17991     17988     17976     17978     17992
     17989     17976     17978     17991     17989     17976     17978     17992
     17990     17976     17978     17991     17990     17976     17978     17992
     17991     17978     17980     17993     17991     17978     17980     17994
     17992     17978     17980     17993     17992     17978     17980     17994
     18001     18003     18005     18007     18001     18003     18005     18018
     18001     18003     18005     18019     18003     18005     18007     18009
     18003     18005     18007     18011     18005     18003     18001     18013
     18005     18003     18001     18014     18005     18003     18001     18015
     18005     18007     18009     18021     18005     18007     18011     18020
     18007     18005     18003     18016     18007     18005     18003     18017
     18009     18007     18005     18018     18009     18007     18005     18019
     18009     18007     18011     18020     18011     18007     18005     18018
     18011     18007     18005     18019     18011     18007     18009     18021
     18013     18001     18003     18016     18013     18001     18003     18017
     18014     18001     18003     18016     18014     18001     18003     18017
     18015     18001     18003     18016     18015     18001     18003     18017
     18016     18003     18005     18018     18016     18003     18005     18019
     18017     18003     18005     18018     18017     18003     18005     18019
     18026     18028     18030     18032     18026     18028     18030     18043
     18026     18028     18030     18044     18028     18030     18032     18034
     18028     18030     18032     18036     18030     18028     18026     18038
     18030     18028     18026     18039     18030     18028     18026     18040
     18030     18032     18034     18046     18030     18032     18036     18045
     18032     18030     18028     18041     18032     18030     18028     18042
     18034     18032     18030     18043     18034     18032     18030     18044
     18034     18032     18036     18045     18036     18032     18030     18043
     18036     18032     18030     18044     18036     18032     18034     18046
     18038     18026     18028     18041     18038     18026     18028     18042
     18039     18026     18028     18041     18039     18026     18028     18042
     18040     18026     18028     18041     18040     18026     18028     18042
     18041     18028     18030     18043     18041     18028     18030     18044
     18042     18028     18030     18043     18042     18028     18030     18044
     18051     18053     18055     18057     18051     18053     18055     18068
     18051     18053     18055     18069     18053     18055     18057     18059
     18053     18055     18057     18061     18055     18053     18051     18063
     18055     18053     18051     18064     18055     18053     18051     18065
     18055     18057     18059     18071     18055     18057     18061     18070
     18057     18055     18053     18066     18057     18055     18053     18067
     18059     18057     18055     18068     18059     18057     18055     18069
     18059     18057     18061     18070     18061     18057     18055     18068
     18061     18057     18055     18069     18061     18057     18059     18071
     18063     18051     18053     18066     18063     18051     18053     18067
     18064     18051     18053     18066     18064     18051     18053     18067
     18065     18051     18053     18066     18065     18051     18053     18067
     18066     18053     18055     18068     18066     18053     18055     18069
     18067     18053     18055     18068     18067     18053     18055     18069
     18076     18078     18080     18082     18076     18078     18080     18093
     18076     18078     18080     18094     18078     18080     18082     18084
     18078     18080     18082     18086     18080     18078     18076     18088
     18080     18078     18076     18089     18080     18078     18076     18090
     18080     18082     18084     18096     18080     18082     18086     18095
     18082     18080     18078     18091     18082     18080     18078     18092
     18084     18082     18080     18093     18084     18082     18080     18094
     18084     18082     18086     18095     18086     18082     18080     18093
     18086     18082     18080     18094     18086     18082     18084     18096
     18088     18076     18078     18091     18088     18076     18078     18092
     18089     18076     18078     18091     18089     18076     18078     18092
     18090     18076     18078     18091     18090     18076     18078     18092
     18091     18078     18080     18093     18091     18078     18080     18094
     18092     18078     18080     18093     18092     18078     18080     18094
     18101     18103     18105     18107     18101     18103     18105     18118
     18101     18103     18105     18119     18103     18105     18107     18109
     18103     18105     18107     18111     18105     18103     18101     18113
     18105     18103     18101     18114     18105     18103     18101     18115
     18105     18107     18109     18121     18105     18107     18111     18120
     18107     18105     18103     18116     18107     18105     18103     18117
     18109     18107     18105     18118     18109     18107     18105     18119
     18109     18107     18111     18120     18111     18107     18105     18118
     18111     18107     18105     18119     18111     18107     18109     18121
     18113     18101     18103     18116     18113     18101     18103     18117
     18114     18101     18103     18116     18114     18101     18103     18117
     18115     18101     18103     18116     18115     18101     18103     18117
     18116     18103     18105     18118     18116     18103     18105     18119
     18117     18103     18105     18118     18117     18103     18105     18119
     18126     18128     18130     18132     18126     18128     18130     18143
     18126     18128     18130     18144     18128     18130     18132     18134
     18128     18130     18132     18136     18130     18128     18126     18138
     18130     18128     18126     18139     18130     18128     18126     18140
     18130     18132     18134     18146     18130     18132     18136     18145
     18132     18130     18128     18141     18132     18130     18128     18142
     18134     18132     18130     18143     18134     18132     18130     18144
     18134     18132     18136     18145     18136     18132     18130     18143
     18136     18132     18130     18144     18136     18132     18134     18146
     18138     18126     18128     18141     18138     18126     18128     18142
     18139     18126     18128     18141     18139     18126     18128     18142
     18140     18126     18128     18141     18140     18126     18128     18142
     18141     18128     18130     18143     18141     18128     18130     18144
     18142     18128     18130     18143     18142     18128     18130     18144
     18151     18153     18155     18157     18151     18153     18155     18168
     18151     18153     18155     18169     18153     18155     18157     18159
     18153     18155     18157     18161     18155     18153     18151     18163
     18155     18153     18151     18164     18155     18153     18151     18165
     18155     18157     18159     18171     18155     18157     18161     18170
     18157     18155     18153     18166     18157     18155     18153     18167
     18159     18157     18155     18168     18159     18157     18155     18169
     18159     18157     18161     18170     18161     18157     18155     18168
     18161     18157     18155     18169     18161     18157     18159     18171
     18163     18151     18153     18166     18163     18151     18153     18167
     18164     18151     18153     18166     18164     18151     18153     18167
     18165     18151     18153     18166     18165     18151     18153     18167
     18166     18153     18155     18168     18166     18153     18155     18169
     18167     18153     18155     18168     18167     18153     18155     18169
     18176     18178     18180     18182     18176     18178     18180     18193
     18176     18178     18180     18194     18178     18180     18182     18184
     18178     18180     18182     18186     18180     18178     18176     18188
     18180     18178     18176     18189     18180     18178     18176     18190
     18180     18182     18184     18196     18180     18182     18186     18195
     18182     18180     18178     18191     18182     18180     18178     18192
     18184     18182     18180     18193     18184     18182     18180     18194
     18184     18182     18186     18195     18186     18182     18180     18193
     18186     18182     18180     18194     18186     18182     18184     18196
     18188     18176     18178     18191     18188     18176     18178     18192
     18189     18176     18178     18191     18189     18176     18178     18192
     18190     18176     18178     18191     18190     18176     18178     18192
     18191     18178     18180     18193     18191     18178     18180     18194
     18192     18178     18180     18193     18192     18178     18180     18194
     18201     18203     18205     18207     18201     18203     18205     18218
     18201     18203     18205     18219     18203     18205     18207     18209
     18203     18205     18207     18211     18205     18203     18201     18213
     18205     18203     18201     18214     18205     18203     18201     18215
     18205     18207     18209     18221     18205     18207     18211     18220
     18207     18205     18203     18216     18207     18205     18203     18217
     18209     18207     18205     18218     18209     18207     18205     18219
     18209     18207     18211     18220     18211     18207     18205     18218
     18211     18207     18205     18219     18211     18207     18209     18221
     18213     18201     18203     18216     18213     18201     18203     18217
     18214     18201     18203     18216     18214     18201     18203     18217
     18215     18201     18203     18216     18215     18201     18203     18217
     18216     18203     18205     18218     18216     18203     18205     18219
     18217     18203     18205     18218     18217     18203     18205     18219
     18226     18228     18230     18232     18226     18228     18230     18243
     18226     18228     18230     18244     18228     18230     18232     18234
     18228     18230     18232     18236     18230     18228     18226     18238
     18230     18228     18226     18239     18230     18228     18226     18240
     18230     18232     18234     18246     18230     18232     18236     18245
     18232     18230     18228     18241     18232     18230     18228     18242
     18234     18232     18230     18243     18234     18232     18230     18244
     18234     18232     18236     18245     18236     18232     18230     18243
     18236     18232     18230     18244     18236     18232     18234     18246
     18238     18226     18228     18241     18238     18226     18228     18242
     18239     18226     18228     18241     18239     18226     18228     18242
     18240     18226     18228     18241     18240     18226     18228     18242
     18241     18228     18230     18243     18241     18228     18230     18244
     18242     18228     18230     18243     18242     18228     18230     18244
     18251     18253     18255     18257     18251     18253     18255     18268
     18251     18253     18255     18269     18253     18255     18257     18259
     18253     18255     18257     18261     18255     18253     18251     18263
     18255     18253     18251     18264     18255     18253     18251     18265
     18255     18257     18259     18271     18255     18257     18261     18270
     18257     18255     18253     18266     18257     18255     18253     18267
     18259     18257     18255     18268     18259     18257     18255     18269
     18259     18257     18261     18270     18261     18257     18255     18268
     18261     18257     18255     18269     18261     18257     18259     18271
     18263     18251     18253     18266     18263     18251     18253     18267
     18264     18251     18253     18266     18264     18251     18253     18267
     18265     18251     18253     18266     18265     18251     18253     18267
     18266     18253     18255     18268     18266     18253     18255     18269
     18267     18253     18255     18268     18267     18253     18255     18269
     18276     18278     18280     18282     18276     18278     18280     18293
     18276     18278     18280     18294     18278     18280     18282     18284
     18278     18280     18282     18286     18280     18278     18276     18288
     18280     18278     18276     18289     18280     18278     18276     18290
     18280     18282     18284     18296     18280     18282     18286     18295
     18282     18280     18278     18291     18282     18280     18278     18292
     18284     18282     18280     18293     18284     18282     18280     18294
     18284     18282     18286     18295     18286     18282     18280     18293
     18286     18282     18280     18294     18286     18282     18284     18296
     18288     18276     18278     18291     18288     18276     18278     18292
     18289     18276     18278     18291     18289     18276     18278     18292
     18290     18276     18278     18291     18290     18276     18278     18292
     18291     18278     18280     18293     18291     18278     18280     18294
     18292     18278     18280     18293     18292     18278     18280     18294
     18301     18303     18305     18307     18301     18303     18305     18318
     18301     18303     18305     18319     18303     18305     18307     18309
     18303     18305     18307     18311     18305     18303     18301     18313
     18305     18303     18301     18314     18305     18303     18301     18315
     18305     18307     18309     18321     18305     18307     18311     18320
     18307     18305     18303     18316     18307     18305     18303     18317
     18309     18307     18305     18318     18309     18307     18305     18319
     18309     18307     18311     18320     18311     18307     18305     18318
     18311     18307     18305     18319     18311     18307     18309     18321
     18313     18301     18303     18316     18313     18301     18303     18317
     18314     18301     18303     18316     18314     18301     18303     18317
     18315     18301     18303     18316     18315     18301     18303     18317
     18316     18303     18305     18318     18316     18303     18305     18319
     18317     18303     18305     18318     18317     18303     18305     18319
     18326     18328     18330     18332     18326     18328     18330     18343
     18326     18328     18330     18344     18328     18330     18332     18334
     18328     18330     18332     18336     18330     18328     18326     18338
     18330     18328     18326     18339     18330     18328     18326     18340
     18330     18332     18334     18346     18330     18332     18336     18345
     18332     18330     18328     18341     18332     18330     18328     18342
     18334     18332     18330     18343     18334     18332     18330     18344
     18334     18332     18336     18345     18336     18332     18330     18343
     18336     18332     18330     18344     18336     18332     18334     18346
     18338     18326     18328     18341     18338     18326     18328     18342
     18339     18326     18328     18341     18339     18326     18328     18342
     18340     18326     18328     18341     18340     18326     18328     18342
     18341     18328     18330     18343     18341     18328     18330     18344
     18342     18328     18330     18343     18342     18328     18330     18344
     18351     18353     18355     18357     18351     18353     18355     18368
     18351     18353     18355     18369     18353     18355     18357     18359
     18353     18355     18357     18361     18355     18353     18351     18363
     18355     18353     18351     18364     18355     18353     18351     18365
     18355     18357     18359     18371     18355     18357     18361     18370
     18357     18355     18353     18366     18357     18355     18353     18367
     18359     18357     18355     18368     18359     18357     18355     18369
     18359     18357     18361     18370     18361     18357     18355     18368
     18361     18357     18355     18369     18361     18357     18359     18371
     18363     18351     18353     18366     18363     18351     18353     18367
     18364     18351     18353     18366     18364     18351     18353     18367
     18365     18351     18353     18366     18365     18351     18353     18367
     18366     18353     18355     18368     18366     18353     18355     18369
     18367     18353     18355     18368     18367     18353     18355     18369
     18376     18378     18380     18382     18376     18378     18380     18393
     18376     18378     18380     18394     18378     18380     18382     18384
     18378     18380     18382     18386     18380     18378     18376     18388
     18380     18378     18376     18389     18380     18378     18376     18390
     18380     18382     18384     18396     18380     18382     18386     18395
     18382     18380     18378     18391     18382     18380     18378     18392
     18384     18382     18380     18393     18384     18382     18380     18394
     18384     18382     18386     18395     18386     18382     18380     18393
     18386     18382     18380     18394     18386     18382     18384     18396
     18388     18376     18378     18391     18388     18376     18378     18392
     18389     18376     18378     18391     18389     18376     18378     18392
     18390     18376     18378     18391     18390     18376     18378     18392
     18391     18378     18380     18393     18391     18378     18380     18394
     18392     18378     18380     18393     18392     18378     18380     18394
     18401     18403     18405     18407     18401     18403     18405     18418
     18401     18403     18405     18419     18403     18405     18407     18409
     18403     18405     18407     18411     18405     18403     18401     18413
     18405     18403     18401     18414     18405     18403     18401     18415
     18405     18407     18409     18421     18405     18407     18411     18420
     18407     18405     18403     18416     18407     18405     18403     18417
     18409     18407     18405     18418     18409     18407     18405     18419
     18409     18407     18411     18420     18411     18407     18405     18418
     18411     18407     18405     18419     18411     18407     18409     18421
     18413     18401     18403     18416     18413     18401     18403     18417
     18414     18401     18403     18416     18414     18401     18403     18417
     18415     18401     18403     18416     18415     18401     18403     18417
     18416     18403     18405     18418     18416     18403     18405     18419
     18417     18403     18405     18418     18417     18403     18405     18419
     18426     18428     18430     18432     18426     18428     18430     18443
     18426     18428     18430     18444     18428     18430     18432     18434
     18428     18430     18432     18436     18430     18428     18426     18438
     18430     18428     18426     18439     18430     18428     18426     18440
     18430     18432     18434     18446     18430     18432     18436     18445
     18432     18430     18428     18441     18432     18430     18428     18442
     18434     18432     18430     18443     18434     18432     18430     18444
     18434     18432     18436     18445     18436     18432     18430     18443
     18436     18432     18430     18444     18436     18432     18434     18446
     18438     18426     18428     18441     18438     18426     18428     18442
     18439     18426     18428     18441     18439     18426     18428     18442
     18440     18426     18428     18441     18440     18426     18428     18442
     18441     18428     18430     18443     18441     18428     18430     18444
     18442     18428     18430     18443     18442     18428     18430     18444
     18451     18453     18455     18457     18451     18453     18455     18468
     18451     18453     18455     18469     18453     18455     18457     18459
     18453     18455     18457     18461     18455     18453     18451     18463
     18455     18453     18451     18464     18455     18453     18451     18465
     18455     18457     18459     18471     18455     18457     18461     18470
     18457     18455     18453     18466     18457     18455     18453     18467
     18459     18457     18455     18468     18459     18457     18455     18469
     18459     18457     18461     18470     18461     18457     18455     18468
     18461     18457     18455     18469     18461     18457     18459     18471
     18463     18451     18453     18466     18463     18451     18453     18467
     18464     18451     18453     18466     18464     18451     18453     18467
     18465     18451     18453     18466     18465     18451     18453     18467
     18466     18453     18455     18468     18466     18453     18455     18469
     18467     18453     18455     18468     18467     18453     18455     18469
     18476     18478     18480     18482     18476     18478     18480     18493
     18476     18478     18480     18494     18478     18480     18482     18484
     18478     18480     18482     18486     18480     18478     18476     18488
     18480     18478     18476     18489     18480     18478     18476     18490
     18480     18482     18484     18496     18480     18482     18486     18495
     18482     18480     18478     18491     18482     18480     18478     18492
     18484     18482     18480     18493     18484     18482     18480     18494
     18484     18482     18486     18495     18486     18482     18480     18493
     18486     18482     18480     18494     18486     18482     18484     18496
     18488     18476     18478     18491     18488     18476     18478     18492
     18489     18476     18478     18491     18489     18476     18478     18492
     18490     18476     18478     18491     18490     18476     18478     18492
     18491     18478     18480     18493     18491     18478     18480     18494
     18492     18478     18480     18493     18492     18478     18480     18494
     18501     18503     18505     18507     18501     18503     18505     18518
     18501     18503     18505     18519     18503     18505     18507     18509
     18503     18505     18507     18511     18505     18503     18501     18513
     18505     18503     18501     18514     18505     18503     18501     18515
     18505     18507     18509     18521     18505     18507     18511     18520
     18507     18505     18503     18516     18507     18505     18503     18517
     18509     18507     18505     18518     18509     18507     18505     18519
     18509     18507     18511     18520     18511     18507     18505     18518
     18511     18507     18505     18519     18511     18507     18509     18521
     18513     18501     18503     18516     18513     18501     18503     18517
     18514     18501     18503     18516     18514     18501     18503     18517
     18515     18501     18503     18516     18515     18501     18503     18517
     18516     18503     18505     18518     18516     18503     18505     18519
     18517     18503     18505     18518     18517     18503     18505     18519
     18526     18528     18530     18532     18526     18528     18530     18543
     18526     18528     18530     18544     18528     18530     18532     18534
     18528     18530     18532     18536     18530     18528     18526     18538
     18530     18528     18526     18539     18530     18528     18526     18540
     18530     18532     18534     18546     18530     18532     18536     18545
     18532     18530     18528     18541     18532     18530     18528     18542
     18534     18532     18530     18543     18534     18532     18530     18544
     18534     18532     18536     18545     18536     18532     18530     18543
     18536     18532     18530     18544     18536     18532     18534     18546
     18538     18526     18528     18541     18538     18526     18528     18542
     18539     18526     18528     18541     18539     18526     18528     18542
     18540     18526     18528     18541     18540     18526     18528     18542
     18541     18528     18530     18543     18541     18528     18530     18544
     18542     18528     18530     18543     18542     18528     18530     18544
     18551     18553     18555     18557     18551     18553     18555     18568
     18551     18553     18555     18569     18553     18555     18557     18559
     18553     18555     18557     18561     18555     18553     18551     18563
     18555     18553     18551     18564     18555     18553     18551     18565
     18555     18557     18559     18571     18555     18557     18561     18570
     18557     18555     18553     18566     18557     18555     18553     18567
     18559     18557     18555     18568     18559     18557     18555     18569
     18559     18557     18561     18570     18561     18557     18555     18568
     18561     18557     18555     18569     18561     18557     18559     18571
     18563     18551     18553     18566     18563     18551     18553     18567
     18564     18551     18553     18566     18564     18551     18553     18567
     18565     18551     18553     18566     18565     18551     18553     18567
     18566     18553     18555     18568     18566     18553     18555     18569
     18567     18553     18555     18568     18567     18553     18555     18569
     18576     18578     18580     18582     18576     18578     18580     18593
     18576     18578     18580     18594     18578     18580     18582     18584
     18578     18580     18582     18586     18580     18578     18576     18588
     18580     18578     18576     18589     18580     18578     18576     18590
     18580     18582     18584     18596     18580     18582     18586     18595
     18582     18580     18578     18591     18582     18580     18578     18592
     18584     18582     18580     18593     18584     18582     18580     18594
     18584     18582     18586     18595     18586     18582     18580     18593
     18586     18582     18580     18594     18586     18582     18584     18596
     18588     18576     18578     18591     18588     18576     18578     18592
     18589     18576     18578     18591     18589     18576     18578     18592
     18590     18576     18578     18591     18590     18576     18578     18592
     18591     18578     18580     18593     18591     18578     18580     18594
     18592     18578     18580     18593     18592     18578     18580     18594
     18601     18603     18605     18607     18601     18603     18605     18618
     18601     18603     18605     18619     18603     18605     18607     18609
     18603     18605     18607     18611     18605     18603     18601     18613
     18605     18603     18601     18614     18605     18603     18601     18615
     18605     18607     18609     18621     18605     18607     18611     18620
     18607     18605     18603     18616     18607     18605     18603     18617
     18609     18607     18605     18618     18609     18607     18605     18619
     18609     18607     18611     18620     18611     18607     18605     18618
     18611     18607     18605     18619     18611     18607     18609     18621
     18613     18601     18603     18616     18613     18601     18603     18617
     18614     18601     18603     18616     18614     18601     18603     18617
     18615     18601     18603     18616     18615     18601     18603     18617
     18616     18603     18605     18618     18616     18603     18605     18619
     18617     18603     18605     18618     18617     18603     18605     18619
     18626     18628     18630     18632     18626     18628     18630     18643
     18626     18628     18630     18644     18628     18630     18632     18634
     18628     18630     18632     18636     18630     18628     18626     18638
     18630     18628     18626     18639     18630     18628     18626     18640
     18630     18632     18634     18646     18630     18632     18636     18645
     18632     18630     18628     18641     18632     18630     18628     18642
     18634     18632     18630     18643     18634     18632     18630     18644
     18634     18632     18636     18645     18636     18632     18630     18643
     18636     18632     18630     18644     18636     18632     18634     18646
     18638     18626     18628     18641     18638     18626     18628     18642
     18639     18626     18628     18641     18639     18626     18628     18642
     18640     18626     18628     18641     18640     18626     18628     18642
     18641     18628     18630     18643     18641     18628     18630     18644
     18642     18628     18630     18643     18642     18628     18630     18644
     18651     18653     18655     18657     18651     18653     18655     18668
     18651     18653     18655     18669     18653     18655     18657     18659
     18653     18655     18657     18661     18655     18653     18651     18663
     18655     18653     18651     18664     18655     18653     18651     18665
     18655     18657     18659     18671     18655     18657     18661     18670
     18657     18655     18653     18666     18657     18655     18653     18667
     18659     18657     18655     18668     18659     18657     18655     18669
     18659     18657     18661     18670     18661     18657     18655     18668
     18661     18657     18655     18669     18661     18657     18659     18671
     18663     18651     18653     18666     18663     18651     18653     18667
     18664     18651     18653     18666     18664     18651     18653     18667
     18665     18651     18653     18666     18665     18651     18653     18667
     18666     18653     18655     18668     18666     18653     18655     18669
     18667     18653     18655     18668     18667     18653     18655     18669
     18676     18678     18680     18682     18676     18678     18680     18693
     18676     18678     18680     18694     18678     18680     18682     18684
     18678     18680     18682     18686     18680     18678     18676     18688
     18680     18678     18676     18689     18680     18678     18676     18690
     18680     18682     18684     18696     18680     18682     18686     18695
     18682     18680     18678     18691     18682     18680     18678     18692
     18684     18682     18680     18693     18684     18682     18680     18694
     18684     18682     18686     18695     18686     18682     18680     18693
     18686     18682     18680     18694     18686     18682     18684     18696
     18688     18676     18678     18691     18688     18676     18678     18692
     18689     18676     18678     18691     18689     18676     18678     18692
     18690     18676     18678     18691     18690     18676     18678     18692
     18691     18678     18680     18693     18691     18678     18680     18694
     18692     18678     18680     18693     18692     18678     18680     18694
     18701     18703     18705     18707     18701     18703     18705     18718
     18701     18703     18705     18719     18703     18705     18707     18709
     18703     18705     18707     18711     18705     18703     18701     18713
     18705     18703     18701     18714     18705     18703     18701     18715
     18705     18707     18709     18721     18705     18707     18711     18720
     18707     18705     18703     18716     18707     18705     18703     18717
     18709     18707     18705     18718     18709     18707     18705     18719
     18709     18707     18711     18720     18711     18707     18705     18718
     18711     18707     18705     18719     18711     18707     18709     18721
     18713     18701     18703     18716     18713     18701     18703     18717
     18714     18701     18703     18716     18714     18701     18703     18717
     18715     18701     18703     18716     18715     18701     18703     18717
     18716     18703     18705     18718     18716     18703     18705     18719
     18717     18703     18705     18718     18717     18703     18705     18719
     18726     18728     18730     18732     18726     18728     18730     18743
     18726     18728     18730     18744     18728     18730     18732     18734
     18728     18730     18732     18736     18730     18728     18726     18738
     18730     18728     18726     18739     18730     18728     18726     18740
     18730     18732     18734     18746     18730     18732     18736     18745
     18732     18730     18728     18741     18732     18730     18728     18742
     18734     18732     18730     18743     18734     18732     18730     18744
     18734     18732     18736     18745     18736     18732     18730     18743
     18736     18732     18730     18744     18736     18732     18734     18746
     18738     18726     18728     18741     18738     18726     18728     18742
     18739     18726     18728     18741     18739     18726     18728     18742
     18740     18726     18728     18741     18740     18726     18728     18742
     18741     18728     18730     18743     18741     18728     18730     18744
     18742     18728     18730     18743     18742     18728     18730     18744
     18751     18753     18755     18757     18751     18753     18755     18768
     18751     18753     18755     18769     18753     18755     18757     18759
     18753     18755     18757     18761     18755     18753     18751     18763
     18755     18753     18751     18764     18755     18753     18751     18765
     18755     18757     18759     18771     18755     18757     18761     18770
     18757     18755     18753     18766     18757     18755     18753     18767
     18759     18757     18755     18768     18759     18757     18755     18769
     18759     18757     18761     18770     18761     18757     18755     18768
     18761     18757     18755     18769     18761     18757     18759     18771
     18763     18751     18753     18766     18763     18751     18753     18767
     18764     18751     18753     18766     18764     18751     18753     18767
     18765     18751     18753     18766     18765     18751     18753     18767
     18766     18753     18755     18768     18766     18753     18755     18769
     18767     18753     18755     18768     18767     18753     18755     18769
     18776     18778     18780     18782     18776     18778     18780     18793
     18776     18778     18780     18794     18778     18780     18782     18784
     18778     18780     18782     18786     18780     18778     18776     18788
     18780     18778     18776     18789     18780     18778     18776     18790
     18780     18782     18784     18796     18780     18782     18786     18795
     18782     18780     18778     18791     18782     18780     18778     18792
     18784     18782     18780     18793     18784     18782     18780     18794
     18784     18782     18786     18795     18786     18782     18780     18793
     18786     18782     18780     18794     18786     18782     18784     18796
     18788     18776     18778     18791     18788     18776     18778     18792
     18789     18776     18778     18791     18789     18776     18778     18792
     18790     18776     18778     18791     18790     18776     18778     18792
     18791     18778     18780     18793     18791     18778     18780     18794
     18792     18778     18780     18793     18792     18778     18780     18794
     18801     18803     18805     18807     18801     18803     18805     18818
     18801     18803     18805     18819     18803     18805     18807     18809
     18803     18805     18807     18811     18805     18803     18801     18813
     18805     18803     18801     18814     18805     18803     18801     18815
     18805     18807     18809     18821     18805     18807     18811     18820
     18807     18805     18803     18816     18807     18805     18803     18817
     18809     18807     18805     18818     18809     18807     18805     18819
     18809     18807     18811     18820     18811     18807     18805     18818
     18811     18807     18805     18819     18811     18807     18809     18821
     18813     18801     18803     18816     18813     18801     18803     18817
     18814     18801     18803     18816     18814     18801     18803     18817
     18815     18801     18803     18816     18815     18801     18803     18817
     18816     18803     18805     18818     18816     18803     18805     18819
     18817     18803     18805     18818     18817     18803     18805     18819
     18826     18828     18830     18832     18826     18828     18830     18843
     18826     18828     18830     18844     18828     18830     18832     18834
     18828     18830     18832     18836     18830     18828     18826     18838
     18830     18828     18826     18839     18830     18828     18826     18840
     18830     18832     18834     18846     18830     18832     18836     18845
     18832     18830     18828     18841     18832     18830     18828     18842
     18834     18832     18830     18843     18834     18832     18830     18844
     18834     18832     18836     18845     18836     18832     18830     18843
     18836     18832     18830     18844     18836     18832     18834     18846
     18838     18826     18828     18841     18838     18826     18828     18842
     18839     18826     18828     18841     18839     18826     18828     18842
     18840     18826     18828     18841     18840     18826     18828     18842
     18841     18828     18830     18843     18841     18828     18830     18844
     18842     18828     18830     18843     18842     18828     18830     18844
     18851     18853     18855     18857     18851     18853     18855     18868
     18851     18853     18855     18869     18853     18855     18857     18859
     18853     18855     18857     18861     18855     18853     18851     18863
     18855     18853     18851     18864     18855     18853     18851     18865
     18855     18857     18859     18871     18855     18857     18861     18870
     18857     18855     18853     18866     18857     18855     18853     18867
     18859     18857     18855     18868     18859     18857     18855     18869
     18859     18857     18861     18870     18861     18857     18855     18868
     18861     18857     18855     18869     18861     18857     18859     18871
     18863     18851     18853     18866     18863     18851     18853     18867
     18864     18851     18853     18866     18864     18851     18853     18867
     18865     18851     18853     18866     18865     18851     18853     18867
     18866     18853     18855     18868     18866     18853     18855     18869
     18867     18853     18855     18868     18867     18853     18855     18869
     18876     18878     18880     18882     18876     18878     18880     18893
     18876     18878     18880     18894     18878     18880     18882     18884
     18878     18880     18882     18886     18880     18878     18876     18888
     18880     18878     18876     18889     18880     18878     18876     18890
     18880     18882     18884     18896     18880     18882     18886     18895
     18882     18880     18878     18891     18882     18880     18878     18892
     18884     18882     18880     18893     18884     18882     18880     18894
     18884     18882     18886     18895     18886     18882     18880     18893
     18886     18882     18880     18894     18886     18882     18884     18896
     18888     18876     18878     18891     18888     18876     18878     18892
     18889     18876     18878     18891     18889     18876     18878     18892
     18890     18876     18878     18891     18890     18876     18878     18892
     18891     18878     18880     18893     18891     18878     18880     18894
     18892     18878     18880     18893     18892     18878     18880     18894
     18901     18903     18905     18907     18901     18903     18905     18918
     18901     18903     18905     18919     18903     18905     18907     18909
     18903     18905     18907     18911     18905     18903     18901     18913
     18905     18903     18901     18914     18905     18903     18901     18915
     18905     18907     18909     18921     18905     18907     18911     18920
     18907     18905     18903     18916     18907     18905     18903     18917
     18909     18907     18905     18918     18909     18907     18905     18919
     18909     18907     18911     18920     18911     18907     18905     18918
     18911     18907     18905     18919     18911     18907     18909     18921
     18913     18901     18903     18916     18913     18901     18903     18917
     18914     18901     18903     18916     18914     18901     18903     18917
     18915     18901     18903     18916     18915     18901     18903     18917
     18916     18903     18905     18918     18916     18903     18905     18919
     18917     18903     18905     18918     18917     18903     18905     18919
     18926     18928     18930     18932     18926     18928     18930     18943
     18926     18928     18930     18944     18928     18930     18932     18934
     18928     18930     18932     18936     18930     18928     18926     18938
     18930     18928     18926     18939     18930     18928     18926     18940
     18930     18932     18934     18946     18930     18932     18936     18945
     18932     18930     18928     18941     18932     18930     18928     18942
     18934     18932     18930     18943     18934     18932     18930     18944
     18934     18932     18936     18945     18936     18932     18930     18943
     18936     18932     18930     18944     18936     18932     18934     18946
     18938     18926     18928     18941     18938     18926     18928     18942
     18939     18926     18928     18941     18939     18926     18928     18942
     18940     18926     18928     18941     18940     18926     18928     18942
     18941     18928     18930     18943     18941     18928     18930     18944
     18942     18928     18930     18943     18942     18928     18930     18944
     18951     18953     18955     18957     18951     18953     18955     18968
     18951     18953     18955     18969     18953     18955     18957     18959
     18953     18955     18957     18961     18955     18953     18951     18963
     18955     18953     18951     18964     18955     18953     18951     18965
     18955     18957     18959     18971     18955     18957     18961     18970
     18957     18955     18953     18966     18957     18955     18953     18967
     18959     18957     18955     18968     18959     18957     18955     18969
     18959     18957     18961     18970     18961     18957     18955     18968
     18961     18957     18955     18969     18961     18957     18959     18971
     18963     18951     18953     18966     18963     18951     18953     18967
     18964     18951     18953     18966     18964     18951     18953     18967
     18965     18951     18953     18966     18965     18951     18953     18967
     18966     18953     18955     18968     18966     18953     18955     18969
     18967     18953     18955     18968     18967     18953     18955     18969
     18976     18978     18980     18982     18976     18978     18980     18993
     18976     18978     18980     18994     18978     18980     18982     18984
     18978     18980     18982     18986     18980     18978     18976     18988
     18980     18978     18976     18989     18980     18978     18976     18990
     18980     18982     18984     18996     18980     18982     18986     18995
     18982     18980     18978     18991     18982     18980     18978     18992
     18984     18982     18980     18993     18984     18982     18980     18994
     18984     18982     18986     18995     18986     18982     18980     18993
     18986     18982     18980     18994     18986     18982     18984     18996
     18988     18976     18978     18991     18988     18976     18978     18992
     18989     18976     18978     18991     18989     18976     18978     18992
     18990     18976     18978     18991     18990     18976     18978     18992
     18991     18978     18980     18993     18991     18978     18980     18994
     18992     18978     18980     18993     18992     18978     18980     18994
     19001     19003     19005     19007     19001     19003     19005     19018
     19001     19003     19005     19019     19003     19005     19007     19009
     19003     19005     19007     19011     19005     19003     19001     19013
     19005     19003     19001     19014     19005     19003     19001     19015
     19005     19007     19009     19021     19005     19007     19011     19020
     19007     19005     19003     19016     19007     19005     19003     19017
     19009     19007     19005     19018     19009     19007     19005     19019
     19009     19007     19011     19020     19011     19007     19005     19018
     19011     19007     19005     19019     19011     19007     19009     19021
     19013     19001     19003     19016     19013     19001     19003     19017
     19014     19001     19003     19016     19014     19001     19003     19017
     19015     19001     19003     19016     19015     19001     19003     19017
     19016     19003     19005     19018     19016     19003     19005     19019
     19017     19003     19005     19018     19017     19003     19005     19019
     19026     19028     19030     19032     19026     19028     19030     19043
     19026     19028     19030     19044     19028     19030     19032     19034
     19028     19030     19032     19036     19030     19028     19026     19038
     19030     19028     19026     19039     19030     19028     19026     19040
     19030     19032     19034     19046     19030     19032     19036     19045
     19032     19030     19028     19041     19032     19030     19028     19042
     19034     19032     19030     19043     19034     19032     19030     19044
     19034     19032     19036     19045     19036     19032     19030     19043
     19036     19032     19030     19044     19036     19032     19034     19046
     19038     19026     19028     19041     19038     19026     19028     19042
     19039     19026     19028     19041     19039     19026     19028     19042
     19040     19026     19028     19041     19040     19026     19028     19042
     19041     19028     19030     19043     19041     19028     19030     19044
     19042     19028     19030     19043     19042     19028     19030     19044
     19051     19053     19055     19057     19051     19053     19055     19068
     19051     19053     19055     19069     19053     19055     19057     19059
     19053     19055     19057     19061     19055     19053     19051     19063
     19055     19053     19051     19064     19055     19053     19051     19065
     19055     19057     19059     19071     19055     19057     19061     19070
     19057     19055     19053     19066     19057     19055     19053     19067
     19059     19057     19055     19068     19059     19057     19055     19069
     19059     19057     19061     19070     19061     19057     19055     19068
     19061     19057     19055     19069     19061     19057     19059     19071
     19063     19051     19053     19066     19063     19051     19053     19067
     19064     19051     19053     19066     19064     19051     19053     19067
     19065     19051     19053     19066     19065     19051     19053     19067
     19066     19053     19055     19068     19066     19053     19055     19069
     19067     19053     19055     19068     19067     19053     19055     19069
     19076     19078     19080     19082     19076     19078     19080     19093
     19076     19078     19080     19094     19078     19080     19082     19084
     19078     19080     19082     19086     19080     19078     19076     19088
     19080     19078     19076     19089     19080     19078     19076     19090
     19080     19082     19084     19096     19080     19082     19086     19095
     19082     19080     19078     19091     19082     19080     19078     19092
     19084     19082     19080     19093     19084     19082     19080     19094
     19084     19082     19086     19095     19086     19082     19080     19093
     19086     19082     19080     19094     19086     19082     19084     19096
     19088     19076     19078     19091     19088     19076     19078     19092
     19089     19076     19078     19091     19089     19076     19078     19092
     19090     19076     19078     19091     19090     19076     19078     19092
     19091     19078     19080     19093     19091     19078     19080     19094
     19092     19078     19080     19093     19092     19078     19080     19094
     19101     19103     19105     19107     19101     19103     19105     19118
     19101     19103     19105     19119     19103     19105     19107     19109
     19103     19105     19107     19111     19105     19103     19101     19113
     19105     19103     19101     19114     19105     19103     19101     19115
     19105     19107     19109     19121     19105     19107     19111     19120
     19107     19105     19103     19116     19107     19105     19103     19117
     19109     19107     19105     19118     19109     19107     19105     19119
     19109     19107     19111     19120     19111     19107     19105     19118
     19111     19107     19105     19119     19111     19107     19109     19121
     19113     19101     19103     19116     19113     19101     19103     19117
     19114     19101     19103     19116     19114     19101     19103     19117
     19115     19101     19103     19116     19115     19101     19103     19117
     19116     19103     19105     19118     19116     19103     19105     19119
     19117     19103     19105     19118     19117     19103     19105     19119
     19126     19128     19130     19132     19126     19128     19130     19143
     19126     19128     19130     19144     19128     19130     19132     19134
     19128     19130     19132     19136     19130     19128     19126     19138
     19130     19128     19126     19139     19130     19128     19126     19140
     19130     19132     19134     19146     19130     19132     19136     19145
     19132     19130     19128     19141     19132     19130     19128     19142
     19134     19132     19130     19143     19134     19132     19130     19144
     19134     19132     19136     19145     19136     19132     19130     19143
     19136     19132     19130     19144     19136     19132     19134     19146
     19138     19126     19128     19141     19138     19126     19128     19142
     19139     19126     19128     19141     19139     19126     19128     19142
     19140     19126     19128     19141     19140     19126     19128     19142
     19141     19128     19130     19143     19141     19128     19130     19144
     19142     19128     19130     19143     19142     19128     19130     19144
     19151     19153     19155     19157     19151     19153     19155     19168
     19151     19153     19155     19169     19153     19155     19157     19159
     19153     19155     19157     19161     19155     19153     19151     19163
     19155     19153     19151     19164     19155     19153     19151     19165
     19155     19157     19159     19171     19155     19157     19161     19170
     19157     19155     19153     19166     19157     19155     19153     19167
     19159     19157     19155     19168     19159     19157     19155     19169
     19159     19157     19161     19170     19161     19157     19155     19168
     19161     19157     19155     19169     19161     19157     19159     19171
     19163     19151     19153     19166     19163     19151     19153     19167
     19164     19151     19153     19166     19164     19151     19153     19167
     19165     19151     19153     19166     19165     19151     19153     19167
     19166     19153     19155     19168     19166     19153     19155     19169
     19167     19153     19155     19168     19167     19153     19155     19169
     19176     19178     19180     19182     19176     19178     19180     19193
     19176     19178     19180     19194     19178     19180     19182     19184
     19178     19180     19182     19186     19180     19178     19176     19188
     19180     19178     19176     19189     19180     19178     19176     19190
     19180     19182     19184     19196     19180     19182     19186     19195
     19182     19180     19178     19191     19182     19180     19178     19192
     19184     19182     19180     19193     19184     19182     19180     19194
     19184     19182     19186     19195     19186     19182     19180     19193
     19186     19182     19180     19194     19186     19182     19184     19196
     19188     19176     19178     19191     19188     19176     19178     19192
     19189     19176     19178     19191     19189     19176     19178     19192
     19190     19176     19178     19191     19190     19176     19178     19192
     19191     19178     19180     19193     19191     19178     19180     19194
     19192     19178     19180     19193     19192     19178     19180     19194
     19201     19203     19205     19207     19201     19203     19205     19218
     19201     19203     19205     19219     19203     19205     19207     19209
     19203     19205     19207     19211     19205     19203     19201     19213
     19205     19203     19201     19214     19205     19203     19201     19215
     19205     19207     19209     19221     19205     19207     19211     19220
     19207     19205     19203     19216     19207     19205     19203     19217
     19209     19207     19205     19218     19209     19207     19205     19219
     19209     19207     19211     19220     19211     19207     19205     19218
     19211     19207     19205     19219     19211     19207     19209     19221
     19213     19201     19203     19216     19213     19201     19203     19217
     19214     19201     19203     19216     19214     19201     19203     19217
     19215     19201     19203     19216     19215     19201     19203     19217
     19216     19203     19205     19218     19216     19203     19205     19219
     19217     19203     19205     19218     19217     19203     19205     19219
     19226     19228     19230     19232     19226     19228     19230     19243
     19226     19228     19230     19244     19228     19230     19232     19234
     19228     19230     19232     19236     19230     19228     19226     19238
     19230     19228     19226     19239     19230     19228     19226     19240
     19230     19232     19234     19246     19230     19232     19236     19245
     19232     19230     19228     19241     19232     19230     19228     19242
     19234     19232     19230     19243     19234     19232     19230     19244
     19234     19232     19236     19245     19236     19232     19230     19243
     19236     19232     19230     19244     19236     19232     19234     19246
     19238     19226     19228     19241     19238     19226     19228     19242
     19239     19226     19228     19241     19239     19226     19228     19242
     19240     19226     19228     19241     19240     19226     19228     19242
     19241     19228     19230     19243     19241     19228     19230     19244
     19242     19228     19230     19243     19242     19228     19230     19244
     19251     19253     19255     19257     19251     19253     19255     19268
     19251     19253     19255     19269     19253     19255     19257     19259
     19253     19255     19257     19261     19255     19253     19251     19263
     19255     19253     19251     19264     19255     19253     19251     19265
     19255     19257     19259     19271     19255     19257     19261     19270
     19257     19255     19253     19266     19257     19255     19253     19267
     19259     19257     19255     19268     19259     19257     19255     19269
     19259     19257     19261     19270     19261     19257     19255     19268
     19261     19257     19255     19269     19261     19257     19259     19271
     19263     19251     19253     19266     19263     19251     19253     19267
     19264     19251     19253     19266     19264     19251     19253     19267
     19265     19251     19253     19266     19265     19251     19253     19267
     19266     19253     19255     19268     19266     19253     19255     19269
     19267     19253     19255     19268     19267     19253     19255     19269
     19276     19278     19280     19282     19276     19278     19280     19293
     19276     19278     19280     19294     19278     19280     19282     19284
     19278     19280     19282     19286     19280     19278     19276     19288
     19280     19278     19276     19289     19280     19278     19276     19290
     19280     19282     19284     19296     19280     19282     19286     19295
     19282     19280     19278     19291     19282     19280     19278     19292
     19284     19282     19280     19293     19284     19282     19280     19294
     19284     19282     19286     19295     19286     19282     19280     19293
     19286     19282     19280     19294     19286     19282     19284     19296
     19288     19276     19278     19291     19288     19276     19278     19292
     19289     19276     19278     19291     19289     19276     19278     19292
     19290     19276     19278     19291     19290     19276     19278     19292
     19291     19278     19280     19293     19291     19278     19280     19294
     19292     19278     19280     19293     19292     19278     19280     19294
     19301     19303     19305     19307     19301     19303     19305     19318
     19301     19303     19305     19319     19303     19305     19307     19309
     19303     19305     19307     19311     19305     19303     19301     19313
     19305     19303     19301     19314     19305     19303     19301     19315
     19305     19307     19309     19321     19305     19307     19311     19320
     19307     19305     19303     19316     19307     19305     19303     19317
     19309     19307     19305     19318     19309     19307     19305     19319
     19309     19307     19311     19320     19311     19307     19305     19318
     19311     19307     19305     19319     19311     19307     19309     19321
     19313     19301     19303     19316     19313     19301     19303     19317
     19314     19301     19303     19316     19314     19301     19303     19317
     19315     19301     19303     19316     19315     19301     19303     19317
     19316     19303     19305     19318     19316     19303     19305     19319
     19317     19303     19305     19318     19317     19303     19305     19319
     19326     19328     19330     19332     19326     19328     19330     19343
     19326     19328     19330     19344     19328     19330     19332     19334
     19328     19330     19332     19336     19330     19328     19326     19338
     19330     19328     19326     19339     19330     19328     19326     19340
     19330     19332     19334     19346     19330     19332     19336     19345
     19332     19330     19328     19341     19332     19330     19328     19342
     19334     19332     19330     19343     19334     19332     19330     19344
     19334     19332     19336     19345     19336     19332     19330     19343
     19336     19332     19330     19344     19336     19332     19334     19346
     19338     19326     19328     19341     19338     19326     19328     19342
     19339     19326     19328     19341     19339     19326     19328     19342
     19340     19326     19328     19341     19340     19326     19328     19342
     19341     19328     19330     19343     19341     19328     19330     19344
     19342     19328     19330     19343     19342     19328     19330     19344
     19351     19353     19355     19357     19351     19353     19355     19368
     19351     19353     19355     19369     19353     19355     19357     19359
     19353     19355     19357     19361     19355     19353     19351     19363
     19355     19353     19351     19364     19355     19353     19351     19365
     19355     19357     19359     19371     19355     19357     19361     19370
     19357     19355     19353     19366     19357     19355     19353     19367
     19359     19357     19355     19368     19359     19357     19355     19369
     19359     19357     19361     19370     19361     19357     19355     19368
     19361     19357     19355     19369     19361     19357     19359     19371
     19363     19351     19353     19366     19363     19351     19353     19367
     19364     19351     19353     19366     19364     19351     19353     19367
     19365     19351     19353     19366     19365     19351     19353     19367
     19366     19353     19355     19368     19366     19353     19355     19369
     19367     19353     19355     19368     19367     19353     19355     19369
     19376     19378     19380     19382     19376     19378     19380     19393
     19376     19378     19380     19394     19378     19380     19382     19384
     19378     19380     19382     19386     19380     19378     19376     19388
     19380     19378     19376     19389     19380     19378     19376     19390
     19380     19382     19384     19396     19380     19382     19386     19395
     19382     19380     19378     19391     19382     19380     19378     19392
     19384     19382     19380     19393     19384     19382     19380     19394
     19384     19382     19386     19395     19386     19382     19380     19393
     19386     19382     19380     19394     19386     19382     19384     19396
     19388     19376     19378     19391     19388     19376     19378     19392
     19389     19376     19378     19391     19389     19376     19378     19392
     19390     19376     19378     19391     19390     19376     19378     19392
     19391     19378     19380     19393     19391     19378     19380     19394
     19392     19378     19380     19393     19392     19378     19380     19394
     19401     19403     19405     19407     19401     19403     19405     19418
     19401     19403     19405     19419     19403     19405     19407     19409
     19403     19405     19407     19411     19405     19403     19401     19413
     19405     19403     19401     19414     19405     19403     19401     19415
     19405     19407     19409     19421     19405     19407     19411     19420
     19407     19405     19403     19416     19407     19405     19403     19417
     19409     19407     19405     19418     19409     19407     19405     19419
     19409     19407     19411     19420     19411     19407     19405     19418
     19411     19407     19405     19419     19411     19407     19409     19421
     19413     19401     19403     19416     19413     19401     19403     19417
     19414     19401     19403     19416     19414     19401     19403     19417
     19415     19401     19403     19416     19415     19401     19403     19417
     19416     19403     19405     19418     19416     19403     19405     19419
     19417     19403     19405     19418     19417     19403     19405     19419
     19426     19428     19430     19432     19426     19428     19430     19443
     19426     19428     19430     19444     19428     19430     19432     19434
     19428     19430     19432     19436     19430     19428     19426     19438
     19430     19428     19426     19439     19430     19428     19426     19440
     19430     19432     19434     19446     19430     19432     19436     19445
     19432     19430     19428     19441     19432     19430     19428     19442
     19434     19432     19430     19443     19434     19432     19430     19444
     19434     19432     19436     19445     19436     19432     19430     19443
     19436     19432     19430     19444     19436     19432     19434     19446
     19438     19426     19428     19441     19438     19426     19428     19442
     19439     19426     19428     19441     19439     19426     19428     19442
     19440     19426     19428     19441     19440     19426     19428     19442
     19441     19428     19430     19443     19441     19428     19430     19444
     19442     19428     19430     19443     19442     19428     19430     19444
     19451     19453     19455     19457     19451     19453     19455     19468
     19451     19453     19455     19469     19453     19455     19457     19459
     19453     19455     19457     19461     19455     19453     19451     19463
     19455     19453     19451     19464     19455     19453     19451     19465
     19455     19457     19459     19471     19455     19457     19461     19470
     19457     19455     19453     19466     19457     19455     19453     19467
     19459     19457     19455     19468     19459     19457     19455     19469
     19459     19457     19461     19470     19461     19457     19455     19468
     19461     19457     19455     19469     19461     19457     19459     19471
     19463     19451     19453     19466     19463     19451     19453     19467
     19464     19451     19453     19466     19464     19451     19453     19467
     19465     19451     19453     19466     19465     19451     19453     19467
     19466     19453     19455     19468     19466     19453     19455     19469
     19467     19453     19455     19468     19467     19453     19455     19469
     19476     19478     19480     19482     19476     19478     19480     19493
     19476     19478     19480     19494     19478     19480     19482     19484
     19478     19480     19482     19486     19480     19478     19476     19488
     19480     19478     19476     19489     19480     19478     19476     19490
     19480     19482     19484     19496     19480     19482     19486     19495
     19482     19480     19478     19491     19482     19480     19478     19492
     19484     19482     19480     19493     19484     19482     19480     19494
     19484     19482     19486     19495     19486     19482     19480     19493
     19486     19482     19480     19494     19486     19482     19484     19496
     19488     19476     19478     19491     19488     19476     19478     19492
     19489     19476     19478     19491     19489     19476     19478     19492
     19490     19476     19478     19491     19490     19476     19478     19492
     19491     19478     19480     19493     19491     19478     19480     19494
     19492     19478     19480     19493     19492     19478     19480     19494
     19501     19503     19505     19507     19501     19503     19505     19518
     19501     19503     19505     19519     19503     19505     19507     19509
     19503     19505     19507     19511     19505     19503     19501     19513
     19505     19503     19501     19514     19505     19503     19501     19515
     19505     19507     19509     19521     19505     19507     19511     19520
     19507     19505     19503     19516     19507     19505     19503     19517
     19509     19507     19505     19518     19509     19507     19505     19519
     19509     19507     19511     19520     19511     19507     19505     19518
     19511     19507     19505     19519     19511     19507     19509     19521
     19513     19501     19503     19516     19513     19501     19503     19517
     19514     19501     19503     19516     19514     19501     19503     19517
     19515     19501     19503     19516     19515     19501     19503     19517
     19516     19503     19505     19518     19516     19503     19505     19519
     19517     19503     19505     19518     19517     19503     19505     19519
     19526     19528     19530     19532     19526     19528     19530     19543
     19526     19528     19530     19544     19528     19530     19532     19534
     19528     19530     19532     19536     19530     19528     19526     19538
     19530     19528     19526     19539     19530     19528     19526     19540
     19530     19532     19534     19546     19530     19532     19536     19545
     19532     19530     19528     19541     19532     19530     19528     19542
     19534     19532     19530     19543     19534     19532     19530     19544
     19534     19532     19536     19545     19536     19532     19530     19543
     19536     19532     19530     19544     19536     19532     19534     19546
     19538     19526     19528     19541     19538     19526     19528     19542
     19539     19526     19528     19541     19539     19526     19528     19542
     19540     19526     19528     19541     19540     19526     19528     19542
     19541     19528     19530     19543     19541     19528     19530     19544
     19542     19528     19530     19543     19542     19528     19530     19544
     19551     19553     19555     19557     19551     19553     19555     19568
     19551     19553     19555     19569     19553     19555     19557     19559
     19553     19555     19557     19561     19555     19553     19551     19563
     19555     19553     19551     19564     19555     19553     19551     19565
     19555     19557     19559     19571     19555     19557     19561     19570
     19557     19555     19553     19566     19557     19555     19553     19567
     19559     19557     19555     19568     19559     19557     19555     19569
     19559     19557     19561     19570     19561     19557     19555     19568
     19561     19557     19555     19569     19561     19557     19559     19571
     19563     19551     19553     19566     19563     19551     19553     19567
     19564     19551     19553     19566     19564     19551     19553     19567
     19565     19551     19553     19566     19565     19551     19553     19567
     19566     19553     19555     19568     19566     19553     19555     19569
     19567     19553     19555     19568     19567     19553     19555     19569
     19576     19578     19580     19582     19576     19578     19580     19593
     19576     19578     19580     19594     19578     19580     19582     19584
     19578     19580     19582     19586     19580     19578     19576     19588
     19580     19578     19576     19589     19580     19578     19576     19590
     19580     19582     19584     19596     19580     19582     19586     19595
     19582     19580     19578     19591     19582     19580     19578     19592
     19584     19582     19580     19593     19584     19582     19580     19594
     19584     19582     19586     19595     19586     19582     19580     19593
     19586     19582     19580     19594     19586     19582     19584     19596
     19588     19576     19578     19591     19588     19576     19578     19592
     19589     19576     19578     19591     19589     19576     19578     19592
     19590     19576     19578     19591     19590     19576     19578     19592
     19591     19578     19580     19593     19591     19578     19580     19594
     19592     19578     19580     19593     19592     19578     19580     19594
     19601     19603     19605     19607     19601     19603     19605     19618
     19601     19603     19605     19619     19603     19605     19607     19609
     19603     19605     19607     19611     19605     19603     19601     19613
     19605     19603     19601     19614     19605     19603     19601     19615
     19605     19607     19609     19621     19605     19607     19611     19620
     19607     19605     19603     19616     19607     19605     19603     19617
     19609     19607     19605     19618     19609     19607     19605     19619
     19609     19607     19611     19620     19611     19607     19605     19618
     19611     19607     19605     19619     19611     19607     19609     19621
     19613     19601     19603     19616     19613     19601     19603     19617
     19614     19601     19603     19616     19614     19601     19603     19617
     19615     19601     19603     19616     19615     19601     19603     19617
     19616     19603     19605     19618     19616     19603     19605     19619
     19617     19603     19605     19618     19617     19603     19605     19619
     19626     19628     19630     19632     19626     19628     19630     19643
     19626     19628     19630     19644     19628     19630     19632     19634
     19628     19630     19632     19636     19630     19628     19626     19638
     19630     19628     19626     19639     19630     19628     19626     19640
     19630     19632     19634     19646     19630     19632     19636     19645
     19632     19630     19628     19641     19632     19630     19628     19642
     19634     19632     19630     19643     19634     19632     19630     19644
     19634     19632     19636     19645     19636     19632     19630     19643
     19636     19632     19630     19644     19636     19632     19634     19646
     19638     19626     19628     19641     19638     19626     19628     19642
     19639     19626     19628     19641     19639     19626     19628     19642
     19640     19626     19628     19641     19640     19626     19628     19642
     19641     19628     19630     19643     19641     19628     19630     19644
     19642     19628     19630     19643     19642     19628     19630     19644
     19651     19653     19655     19657     19651     19653     19655     19668
     19651     19653     19655     19669     19653     19655     19657     19659
     19653     19655     19657     19661     19655     19653     19651     19663
     19655     19653     19651     19664     19655     19653     19651     19665
     19655     19657     19659     19671     19655     19657     19661     19670
     19657     19655     19653     19666     19657     19655     19653     19667
     19659     19657     19655     19668     19659     19657     19655     19669
     19659     19657     19661     19670     19661     19657     19655     19668
     19661     19657     19655     19669     19661     19657     19659     19671
     19663     19651     19653     19666     19663     19651     19653     19667
     19664     19651     19653     19666     19664     19651     19653     19667
     19665     19651     19653     19666     19665     19651     19653     19667
     19666     19653     19655     19668     19666     19653     19655     19669
     19667     19653     19655     19668     19667     19653     19655     19669
     19676     19678     19680     19682     19676     19678     19680     19693
     19676     19678     19680     19694     19678     19680     19682     19684
     19678     19680     19682     19686     19680     19678     19676     19688
     19680     19678     19676     19689     19680     19678     19676     19690
     19680     19682     19684     19696     19680     19682     19686     19695
     19682     19680     19678     19691     19682     19680     19678     19692
     19684     19682     19680     19693     19684     19682     19680     19694
     19684     19682     19686     19695     19686     19682     19680     19693
     19686     19682     19680     19694     19686     19682     19684     19696
     19688     19676     19678     19691     19688     19676     19678     19692
     19689     19676     19678     19691     19689     19676     19678     19692
     19690     19676     19678     19691     19690     19676     19678     19692
     19691     19678     19680     19693     19691     19678     19680     19694
     19692     19678     19680     19693     19692     19678     19680     19694
     19701     19703     19705     19707     19701     19703     19705     19718
     19701     19703     19705     19719     19703     19705     19707     19709
     19703     19705     19707     19711     19705     19703     19701     19713
     19705     19703     19701     19714     19705     19703     19701     19715
     19705     19707     19709     19721     19705     19707     19711     19720
     19707     19705     19703     19716     19707     19705     19703     19717
     19709     19707     19705     19718     19709     19707     19705     19719
     19709     19707     19711     19720     19711     19707     19705     19718
     19711     19707     19705     19719     19711     19707     19709     19721
     19713     19701     19703     19716     19713     19701     19703     19717
     19714     19701     19703     19716     19714     19701     19703     19717
     19715     19701     19703     19716     19715     19701     19703     19717
     19716     19703     19705     19718     19716     19703     19705     19719
     19717     19703     19705     19718     19717     19703     19705     19719
     19726     19728     19730     19732     19726     19728     19730     19743
     19726     19728     19730     19744     19728     19730     19732     19734
     19728     19730     19732     19736     19730     19728     19726     19738
     19730     19728     19726     19739     19730     19728     19726     19740
     19730     19732     19734     19746     19730     19732     19736     19745
     19732     19730     19728     19741     19732     19730     19728     19742
     19734     19732     19730     19743     19734     19732     19730     19744
     19734     19732     19736     19745     19736     19732     19730     19743
     19736     19732     19730     19744     19736     19732     19734     19746
     19738     19726     19728     19741     19738     19726     19728     19742
     19739     19726     19728     19741     19739     19726     19728     19742
     19740     19726     19728     19741     19740     19726     19728     19742
     19741     19728     19730     19743     19741     19728     19730     19744
     19742     19728     19730     19743     19742     19728     19730     19744
     19751     19753     19755     19757     19751     19753     19755     19768
     19751     19753     19755     19769     19753     19755     19757     19759
     19753     19755     19757     19761     19755     19753     19751     19763
     19755     19753     19751     19764     19755     19753     19751     19765
     19755     19757     19759     19771     19755     19757     19761     19770
     19757     19755     19753     19766     19757     19755     19753     19767
     19759     19757     19755     19768     19759     19757     19755     19769
     19759     19757     19761     19770     19761     19757     19755     19768
     19761     19757     19755     19769     19761     19757     19759     19771
     19763     19751     19753     19766     19763     19751     19753     19767
     19764     19751     19753     19766     19764     19751     19753     19767
     19765     19751     19753     19766     19765     19751     19753     19767
     19766     19753     19755     19768     19766     19753     19755     19769
     19767     19753     19755     19768     19767     19753     19755     19769
     19776     19778     19780     19782     19776     19778     19780     19793
     19776     19778     19780     19794     19778     19780     19782     19784
     19778     19780     19782     19786     19780     19778     19776     19788
     19780     19778     19776     19789     19780     19778     19776     19790
     19780     19782     19784     19796     19780     19782     19786     19795
     19782     19780     19778     19791     19782     19780     19778     19792
     19784     19782     19780     19793     19784     19782     19780     19794
     19784     19782     19786     19795     19786     19782     19780     19793
     19786     19782     19780     19794     19786     19782     19784     19796
     19788     19776     19778     19791     19788     19776     19778     19792
     19789     19776     19778     19791     19789     19776     19778     19792
     19790     19776     19778     19791     19790     19776     19778     19792
     19791     19778     19780     19793     19791     19778     19780     19794
     19792     19778     19780     19793     19792     19778     19780     19794
     19801     19803     19805     19807     19801     19803     19805     19818
     19801     19803     19805     19819     19803     19805     19807     19809
     19803     19805     19807     19811     19805     19803     19801     19813
     19805     19803     19801     19814     19805     19803     19801     19815
     19805     19807     19809     19821     19805     19807     19811     19820
     19807     19805     19803     19816     19807     19805     19803     19817
     19809     19807     19805     19818     19809     19807     19805     19819
     19809     19807     19811     19820     19811     19807     19805     19818
     19811     19807     19805     19819     19811     19807     19809     19821
     19813     19801     19803     19816     19813     19801     19803     19817
     19814     19801     19803     19816     19814     19801     19803     19817
     19815     19801     19803     19816     19815     19801     19803     19817
     19816     19803     19805     19818     19816     19803     19805     19819
     19817     19803     19805     19818     19817     19803     19805     19819
     19826     19828     19830     19832     19826     19828     19830     19843
     19826     19828     19830     19844     19828     19830     19832     19834
     19828     19830     19832     19836     19830     19828     19826     19838
     19830     19828     19826     19839     19830     19828     19826     19840
     19830     19832     19834     19846     19830     19832     19836     19845
     19832     19830     19828     19841     19832     19830     19828     19842
     19834     19832     19830     19843     19834     19832     19830     19844
     19834     19832     19836     19845     19836     19832     19830     19843
     19836     19832     19830     19844     19836     19832     19834     19846
     19838     19826     19828     19841     19838     19826     19828     19842
     19839     19826     19828     19841     19839     19826     19828     19842
     19840     19826     19828     19841     19840     19826     19828     19842
     19841     19828     19830     19843     19841     19828     19830     19844
     19842     19828     19830     19843     19842     19828     19830     19844
     19851     19853     19855     19857     19851     19853     19855     19868
     19851     19853     19855     19869     19853     19855     19857     19859
     19853     19855     19857     19861     19855     19853     19851     19863
     19855     19853     19851     19864     19855     19853     19851     19865
     19855     19857     19859     19871     19855     19857     19861     19870
     19857     19855     19853     19866     19857     19855     19853     19867
     19859     19857     19855     19868     19859     19857     19855     19869
     19859     19857     19861     19870     19861     19857     19855     19868
     19861     19857     19855     19869     19861     19857     19859     19871
     19863     19851     19853     19866     19863     19851     19853     19867
     19864     19851     19853     19866     19864     19851     19853     19867
     19865     19851     19853     19866     19865     19851     19853     19867
     19866     19853     19855     19868     19866     19853     19855     19869
     19867     19853     19855     19868     19867     19853     19855     19869
     19876     19878     19880     19882     19876     19878     19880     19893
     19876     19878     19880     19894     19878     19880     19882     19884
     19878     19880     19882     19886     19880     19878     19876     19888
     19880     19878     19876     19889     19880     19878     19876     19890
     19880     19882     19884     19896     19880     19882     19886     19895
     19882     19880     19878     19891     19882     19880     19878     19892
     19884     19882     19880     19893     19884     19882     19880     19894
     19884     19882     19886     19895     19886     19882     19880     19893
     19886     19882     19880     19894     19886     19882     19884     19896
     19888     19876     19878     19891     19888     19876     19878     19892
     19889     19876     19878     19891     19889     19876     19878     19892
     19890     19876     19878     19891     19890     19876     19878     19892
     19891     19878     19880     19893     19891     19878     19880     19894
     19892     19878     19880     19893     19892     19878     19880     19894
     19901     19903     19905     19907     19901     19903     19905     19918
     19901     19903     19905     19919     19903     19905     19907     19909
     19903     19905     19907     19911     19905     19903     19901     19913
     19905     19903     19901     19914     19905     19903     19901     19915
     19905     19907     19909     19921     19905     19907     19911     19920
     19907     19905     19903     19916     19907     19905     19903     19917
     19909     19907     19905     19918     19909     19907     19905     19919
     19909     19907     19911     19920     19911     19907     19905     19918
     19911     19907     19905     19919     19911     19907     19909     19921
     19913     19901     19903     19916     19913     19901     19903     19917
     19914     19901     19903     19916     19914     19901     19903     19917
     19915     19901     19903     19916     19915     19901     19903     19917
     19916     19903     19905     19918     19916     19903     19905     19919
     19917     19903     19905     19918     19917     19903     19905     19919
     19926     19928     19930     19932     19926     19928     19930     19943
     19926     19928     19930     19944     19928     19930     19932     19934
     19928     19930     19932     19936     19930     19928     19926     19938
     19930     19928     19926     19939     19930     19928     19926     19940
     19930     19932     19934     19946     19930     19932     19936     19945
     19932     19930     19928     19941     19932     19930     19928     19942
     19934     19932     19930     19943     19934     19932     19930     19944
     19934     19932     19936     19945     19936     19932     19930     19943
     19936     19932     19930     19944     19936     19932     19934     19946
     19938     19926     19928     19941     19938     19926     19928     19942
     19939     19926     19928     19941     19939     19926     19928     19942
     19940     19926     19928     19941     19940     19926     19928     19942
     19941     19928     19930     19943     19941     19928     19930     19944
     19942     19928     19930     19943     19942     19928     19930     19944
     19951     19953     19955     19957     19951     19953     19955     19968
     19951     19953     19955     19969     19953     19955     19957     19959
     19953     19955     19957     19961     19955     19953     19951     19963
     19955     19953     19951     19964     19955     19953     19951     19965
     19955     19957     19959     19971     19955     19957     19961     19970
     19957     19955     19953     19966     19957     19955     19953     19967
     19959     19957     19955     19968     19959     19957     19955     19969
     19959     19957     19961     19970     19961     19957     19955     19968
     19961     19957     19955     19969     19961     19957     19959     19971
     19963     19951     19953     19966     19963     19951     19953     19967
     19964     19951     19953     19966     19964     19951     19953     19967
     19965     19951     19953     19966     19965     19951     19953     19967
     19966     19953     19955     19968     19966     19953     19955     19969
     19967     19953     19955     19968     19967     19953     19955     19969
     19976     19978     19980     19982     19976     19978     19980     19993
     19976     19978     19980     19994     19978     19980     19982     19984
     19978     19980     19982     19986     19980     19978     19976     19988
     19980     19978     19976     19989     19980     19978     19976     19990
     19980     19982     19984     19996     19980     19982     19986     19995
     19982     19980     19978     19991     19982     19980     19978     19992
     19984     19982     19980     19993     19984     19982     19980     19994
     19984     19982     19986     19995     19986     19982     19980     19993
     19986     19982     19980     19994     19986     19982     19984     19996
     19988     19976     19978     19991     19988     19976     19978     19992
     19989     19976     19978     19991     19989     19976     19978     19992
     19990     19976     19978     19991     19990     19976     19978     19992
     19991     19978     19980     19993     19991     19978     19980     19994
     19992     19978     19980     19993     19992     19978     19980     19994
     20001     20003     20005     20007     20001     20003     20005     20018
     20001     20003     20005     20019     20003     20005     20007     20009
     20003     20005     20007     20011     20005     20003     20001     20013
     20005     20003     20001     20014     20005     20003     20001     20015
     20005     20007     20009     20021     20005     20007     20011     20020
     20007     20005     20003     20016     20007     20005     20003     20017
     20009     20007     20005     20018     20009     20007     20005     20019
     20009     20007     20011     20020     20011     20007     20005     20018
     20011     20007     20005     20019     20011     20007     20009     20021
     20013     20001     20003     20016     20013     20001     20003     20017
     20014     20001     20003     20016     20014     20001     20003     20017
     20015     20001     20003     20016     20015     20001     20003     20017
     20016     20003     20005     20018     20016     20003     20005     20019
     20017     20003     20005     20018     20017     20003     20005     20019
     20026     20028     20030     20032     20026     20028     20030     20043
     20026     20028     20030     20044     20028     20030     20032     20034
     20028     20030     20032     20036     20030     20028     20026     20038
     20030     20028     20026     20039     20030     20028     20026     20040
     20030     20032     20034     20046     20030     20032     20036     20045
     20032     20030     20028     20041     20032     20030     20028     20042
     20034     20032     20030     20043     20034     20032     20030     20044
     20034     20032     20036     20045     20036     20032     20030     20043
     20036     20032     20030     20044     20036     20032     20034     20046
     20038     20026     20028     20041     20038     20026     20028     20042
     20039     20026     20028     20041     20039     20026     20028     20042
     20040     20026     20028     20041     20040     20026     20028     20042
     20041     20028     20030     20043     20041     20028     20030     20044
     20042     20028     20030     20043     20042     20028     20030     20044
     20051     20053     20055     20057     20051     20053     20055     20068
     20051     20053     20055     20069     20053     20055     20057     20059
     20053     20055     20057     20061     20055     20053     20051     20063
     20055     20053     20051     20064     20055     20053     20051     20065
     20055     20057     20059     20071     20055     20057     20061     20070
     20057     20055     20053     20066     20057     20055     20053     20067
     20059     20057     20055     20068     20059     20057     20055     20069
     20059     20057     20061     20070     20061     20057     20055     20068
     20061     20057     20055     20069     20061     20057     20059     20071
     20063     20051     20053     20066     20063     20051     20053     20067
     20064     20051     20053     20066     20064     20051     20053     20067
     20065     20051     20053     20066     20065     20051     20053     20067
     20066     20053     20055     20068     20066     20053     20055     20069
     20067     20053     20055     20068     20067     20053     20055     20069
     20076     20078     20080     20082     20076     20078     20080     20093
     20076     20078     20080     20094     20078     20080     20082     20084
     20078     20080     20082     20086     20080     20078     20076     20088
     20080     20078     20076     20089     20080     20078     20076     20090
     20080     20082     20084     20096     20080     20082     20086     20095
     20082     20080     20078     20091     20082     20080     20078     20092
     20084     20082     20080     20093     20084     20082     20080     20094
     20084     20082     20086     20095     20086     20082     20080     20093
     20086     20082     20080     20094     20086     20082     20084     20096
     20088     20076     20078     20091     20088     20076     20078     20092
     20089     20076     20078     20091     20089     20076     20078     20092
     20090     20076     20078     20091     20090     20076     20078     20092
     20091     20078     20080     20093     20091     20078     20080     20094
     20092     20078     20080     20093     20092     20078     20080     20094
     20101     20103     20105     20107     20101     20103     20105     20118
     20101     20103     20105     20119     20103     20105     20107     20109
     20103     20105     20107     20111     20105     20103     20101     20113
     20105     20103     20101     20114     20105     20103     20101     20115
     20105     20107     20109     20121     20105     20107     20111     20120
     20107     20105     20103     20116     20107     20105     20103     20117
     20109     20107     20105     20118     20109     20107     20105     20119
     20109     20107     20111     20120     20111     20107     20105     20118
     20111     20107     20105     20119     20111     20107     20109     20121
     20113     20101     20103     20116     20113     20101     20103     20117
     20114     20101     20103     20116     20114     20101     20103     20117
     20115     20101     20103     20116     20115     20101     20103     20117
     20116     20103     20105     20118     20116     20103     20105     20119
     20117     20103     20105     20118     20117     20103     20105     20119
     20126     20128     20130     20132     20126     20128     20130     20143
     20126     20128     20130     20144     20128     20130     20132     20134
     20128     20130     20132     20136     20130     20128     20126     20138
     20130     20128     20126     20139     20130     20128     20126     20140
     20130     20132     20134     20146     20130     20132     20136     20145
     20132     20130     20128     20141     20132     20130     20128     20142
     20134     20132     20130     20143     20134     20132     20130     20144
     20134     20132     20136     20145     20136     20132     20130     20143
     20136     20132     20130     20144     20136     20132     20134     20146
     20138     20126     20128     20141     20138     20126     20128     20142
     20139     20126     20128     20141     20139     20126     20128     20142
     20140     20126     20128     20141     20140     20126     20128     20142
     20141     20128     20130     20143     20141     20128     20130     20144
     20142     20128     20130     20143     20142     20128     20130     20144
     20151     20153     20155     20157     20151     20153     20155     20168
     20151     20153     20155     20169     20153     20155     20157     20159
     20153     20155     20157     20161     20155     20153     20151     20163
     20155     20153     20151     20164     20155     20153     20151     20165
     20155     20157     20159     20171     20155     20157     20161     20170
     20157     20155     20153     20166     20157     20155     20153     20167
     20159     20157     20155     20168     20159     20157     20155     20169
     20159     20157     20161     20170     20161     20157     20155     20168
     20161     20157     20155     20169     20161     20157     20159     20171
     20163     20151     20153     20166     20163     20151     20153     20167
     20164     20151     20153     20166     20164     20151     20153     20167
     20165     20151     20153     20166     20165     20151     20153     20167
     20166     20153     20155     20168     20166     20153     20155     20169
     20167     20153     20155     20168     20167     20153     20155     20169
     20176     20178     20180     20182     20176     20178     20180     20193
     20176     20178     20180     20194     20178     20180     20182     20184
     20178     20180     20182     20186     20180     20178     20176     20188
     20180     20178     20176     20189     20180     20178     20176     20190
     20180     20182     20184     20196     20180     20182     20186     20195
     20182     20180     20178     20191     20182     20180     20178     20192
     20184     20182     20180     20193     20184     20182     20180     20194
     20184     20182     20186     20195     20186     20182     20180     20193
     20186     20182     20180     20194     20186     20182     20184     20196
     20188     20176     20178     20191     20188     20176     20178     20192
     20189     20176     20178     20191     20189     20176     20178     20192
     20190     20176     20178     20191     20190     20176     20178     20192
     20191     20178     20180     20193     20191     20178     20180     20194
     20192     20178     20180     20193     20192     20178     20180     20194
     20201     20203     20205     20207     20201     20203     20205     20218
     20201     20203     20205     20219     20203     20205     20207     20209
     20203     20205     20207     20211     20205     20203     20201     20213
     20205     20203     20201     20214     20205     20203     20201     20215
     20205     20207     20209     20221     20205     20207     20211     20220
     20207     20205     20203     20216     20207     20205     20203     20217
     20209     20207     20205     20218     20209     20207     20205     20219
     20209     20207     20211     20220     20211     20207     20205     20218
     20211     20207     20205     20219     20211     20207     20209     20221
     20213     20201     20203     20216     20213     20201     20203     20217
     20214     20201     20203     20216     20214     20201     20203     20217
     20215     20201     20203     20216     20215     20201     20203     20217
     20216     20203     20205     20218     20216     20203     20205     20219
     20217     20203     20205     20218     20217     20203     20205     20219
     20226     20228     20230     20232     20226     20228     20230     20243
     20226     20228     20230     20244     20228     20230     20232     20234
     20228     20230     20232     20236     20230     20228     20226     20238
     20230     20228     20226     20239     20230     20228     20226     20240
     20230     20232     20234     20246     20230     20232     20236     20245
     20232     20230     20228     20241     20232     20230     20228     20242
     20234     20232     20230     20243     20234     20232     20230     20244
     20234     20232     20236     20245     20236     20232     20230     20243
     20236     20232     20230     20244     20236     20232     20234     20246
     20238     20226     20228     20241     20238     20226     20228     20242
     20239     20226     20228     20241     20239     20226     20228     20242
     20240     20226     20228     20241     20240     20226     20228     20242
     20241     20228     20230     20243     20241     20228     20230     20244
     20242     20228     20230     20243     20242     20228     20230     20244
     20251     20253     20255     20257     20251     20253     20255     20268
     20251     20253     20255     20269     20253     20255     20257     20259
     20253     20255     20257     20261     20255     20253     20251     20263
     20255     20253     20251     20264     20255     20253     20251     20265
     20255     20257     20259     20271     20255     20257     20261     20270
     20257     20255     20253     20266     20257     20255     20253     20267
     20259     20257     20255     20268     20259     20257     20255     20269
     20259     20257     20261     20270     20261     20257     20255     20268
     20261     20257     20255     20269     20261     20257     20259     20271
     20263     20251     20253     20266     20263     20251     20253     20267
     20264     20251     20253     20266     20264     20251     20253     20267
     20265     20251     20253     20266     20265     20251     20253     20267
     20266     20253     20255     20268     20266     20253     20255     20269
     20267     20253     20255     20268     20267     20253     20255     20269
     20276     20278     20280     20282     20276     20278     20280     20293
     20276     20278     20280     20294     20278     20280     20282     20284
     20278     20280     20282     20286     20280     20278     20276     20288
     20280     20278     20276     20289     20280     20278     20276     20290
     20280     20282     20284     20296     20280     20282     20286     20295
     20282     20280     20278     20291     20282     20280     20278     20292
     20284     20282     20280     20293     20284     20282     20280     20294
     20284     20282     20286     20295     20286     20282     20280     20293
     20286     20282     20280     20294     20286     20282     20284     20296
     20288     20276     20278     20291     20288     20276     20278     20292
     20289     20276     20278     20291     20289     20276     20278     20292
     20290     20276     20278     20291     20290     20276     20278     20292
     20291     20278     20280     20293     20291     20278     20280     20294
     20292     20278     20280     20293     20292     20278     20280     20294
     20301     20303     20305     20307     20301     20303     20305     20318
     20301     20303     20305     20319     20303     20305     20307     20309
     20303     20305     20307     20311     20305     20303     20301     20313
     20305     20303     20301     20314     20305     20303     20301     20315
     20305     20307     20309     20321     20305     20307     20311     20320
     20307     20305     20303     20316     20307     20305     20303     20317
     20309     20307     20305     20318     20309     20307     20305     20319
     20309     20307     20311     20320     20311     20307     20305     20318
     20311     20307     20305     20319     20311     20307     20309     20321
     20313     20301     20303     20316     20313     20301     20303     20317
     20314     20301     20303     20316     20314     20301     20303     20317
     20315     20301     20303     20316     20315     20301     20303     20317
     20316     20303     20305     20318     20316     20303     20305     20319
     20317     20303     20305     20318     20317     20303     20305     20319
     20326     20328     20330     20332     20326     20328     20330     20343
     20326     20328     20330     20344     20328     20330     20332     20334
     20328     20330     20332     20336     20330     20328     20326     20338
     20330     20328     20326     20339     20330     20328     20326     20340
     20330     20332     20334     20346     20330     20332     20336     20345
     20332     20330     20328     20341     20332     20330     20328     20342
     20334     20332     20330     20343     20334     20332     20330     20344
     20334     20332     20336     20345     20336     20332     20330     20343
     20336     20332     20330     20344     20336     20332     20334     20346
     20338     20326     20328     20341     20338     20326     20328     20342
     20339     20326     20328     20341     20339     20326     20328     20342
     20340     20326     20328     20341     20340     20326     20328     20342
     20341     20328     20330     20343     20341     20328     20330     20344
     20342     20328     20330     20343     20342     20328     20330     20344
     20351     20353     20355     20357     20351     20353     20355     20368
     20351     20353     20355     20369     20353     20355     20357     20359
     20353     20355     20357     20361     20355     20353     20351     20363
     20355     20353     20351     20364     20355     20353     20351     20365
     20355     20357     20359     20371     20355     20357     20361     20370
     20357     20355     20353     20366     20357     20355     20353     20367
     20359     20357     20355     20368     20359     20357     20355     20369
     20359     20357     20361     20370     20361     20357     20355     20368
     20361     20357     20355     20369     20361     20357     20359     20371
     20363     20351     20353     20366     20363     20351     20353     20367
     20364     20351     20353     20366     20364     20351     20353     20367
     20365     20351     20353     20366     20365     20351     20353     20367
     20366     20353     20355     20368     20366     20353     20355     20369
     20367     20353     20355     20368     20367     20353     20355     20369
     20376     20378     20380     20382     20376     20378     20380     20393
     20376     20378     20380     20394     20378     20380     20382     20384
     20378     20380     20382     20386     20380     20378     20376     20388
     20380     20378     20376     20389     20380     20378     20376     20390
     20380     20382     20384     20396     20380     20382     20386     20395
     20382     20380     20378     20391     20382     20380     20378     20392
     20384     20382     20380     20393     20384     20382     20380     20394
     20384     20382     20386     20395     20386     20382     20380     20393
     20386     20382     20380     20394     20386     20382     20384     20396
     20388     20376     20378     20391     20388     20376     20378     20392
     20389     20376     20378     20391     20389     20376     20378     20392
     20390     20376     20378     20391     20390     20376     20378     20392
     20391     20378     20380     20393     20391     20378     20380     20394
     20392     20378     20380     20393     20392     20378     20380     20394
     20401     20403     20405     20407     20401     20403     20405     20418
     20401     20403     20405     20419     20403     20405     20407     20409
     20403     20405     20407     20411     20405     20403     20401     20413
     20405     20403     20401     20414     20405     20403     20401     20415
     20405     20407     20409     20421     20405     20407     20411     20420
     20407     20405     20403     20416     20407     20405     20403     20417
     20409     20407     20405     20418     20409     20407     20405     20419
     20409     20407     20411     20420     20411     20407     20405     20418
     20411     20407     20405     20419     20411     20407     20409     20421
     20413     20401     20403     20416     20413     20401     20403     20417
     20414     20401     20403     20416     20414     20401     20403     20417
     20415     20401     20403     20416     20415     20401     20403     20417
     20416     20403     20405     20418     20416     20403     20405     20419
     20417     20403     20405     20418     20417     20403     20405     20419
     20426     20428     20430     20432     20426     20428     20430     20443
     20426     20428     20430     20444     20428     20430     20432     20434
     20428     20430     20432     20436     20430     20428     20426     20438
     20430     20428     20426     20439     20430     20428     20426     20440
     20430     20432     20434     20446     20430     20432     20436     20445
     20432     20430     20428     20441     20432     20430     20428     20442
     20434     20432     20430     20443     20434     20432     20430     20444
     20434     20432     20436     20445     20436     20432     20430     20443
     20436     20432     20430     20444     20436     20432     20434     20446
     20438     20426     20428     20441     20438     20426     20428     20442
     20439     20426     20428     20441     20439     20426     20428     20442
     20440     20426     20428     20441     20440     20426     20428     20442
     20441     20428     20430     20443     20441     20428     20430     20444
     20442     20428     20430     20443     20442     20428     20430     20444
     20451     20453     20455     20457     20451     20453     20455     20468
     20451     20453     20455     20469     20453     20455     20457     20459
     20453     20455     20457     20461     20455     20453     20451     20463
     20455     20453     20451     20464     20455     20453     20451     20465
     20455     20457     20459     20471     20455     20457     20461     20470
     20457     20455     20453     20466     20457     20455     20453     20467
     20459     20457     20455     20468     20459     20457     20455     20469
     20459     20457     20461     20470     20461     20457     20455     20468
     20461     20457     20455     20469     20461     20457     20459     20471
     20463     20451     20453     20466     20463     20451     20453     20467
     20464     20451     20453     20466     20464     20451     20453     20467
     20465     20451     20453     20466     20465     20451     20453     20467
     20466     20453     20455     20468     20466     20453     20455     20469
     20467     20453     20455     20468     20467     20453     20455     20469
     20476     20478     20480     20482     20476     20478     20480     20493
     20476     20478     20480     20494     20478     20480     20482     20484
     20478     20480     20482     20486     20480     20478     20476     20488
     20480     20478     20476     20489     20480     20478     20476     20490
     20480     20482     20484     20496     20480     20482     20486     20495
     20482     20480     20478     20491     20482     20480     20478     20492
     20484     20482     20480     20493     20484     20482     20480     20494
     20484     20482     20486     20495     20486     20482     20480     20493
     20486     20482     20480     20494     20486     20482     20484     20496
     20488     20476     20478     20491     20488     20476     20478     20492
     20489     20476     20478     20491     20489     20476     20478     20492
     20490     20476     20478     20491     20490     20476     20478     20492
     20491     20478     20480     20493     20491     20478     20480     20494
     20492     20478     20480     20493     20492     20478     20480     20494
     20501     20503     20505     20507     20501     20503     20505     20518
     20501     20503     20505     20519     20503     20505     20507     20509
     20503     20505     20507     20511     20505     20503     20501     20513
     20505     20503     20501     20514     20505     20503     20501     20515
     20505     20507     20509     20521     20505     20507     20511     20520
     20507     20505     20503     20516     20507     20505     20503     20517
     20509     20507     20505     20518     20509     20507     20505     20519
     20509     20507     20511     20520     20511     20507     20505     20518
     20511     20507     20505     20519     20511     20507     20509     20521
     20513     20501     20503     20516     20513     20501     20503     20517
     20514     20501     20503     20516     20514     20501     20503     20517
     20515     20501     20503     20516     20515     20501     20503     20517
     20516     20503     20505     20518     20516     20503     20505     20519
     20517     20503     20505     20518     20517     20503     20505     20519
     20526     20528     20530     20532     20526     20528     20530     20543
     20526     20528     20530     20544     20528     20530     20532     20534
     20528     20530     20532     20536     20530     20528     20526     20538
     20530     20528     20526     20539     20530     20528     20526     20540
     20530     20532     20534     20546     20530     20532     20536     20545
     20532     20530     20528     20541     20532     20530     20528     20542
     20534     20532     20530     20543     20534     20532     20530     20544
     20534     20532     20536     20545     20536     20532     20530     20543
     20536     20532     20530     20544     20536     20532     20534     20546
     20538     20526     20528     20541     20538     20526     20528     20542
     20539     20526     20528     20541     20539     20526     20528     20542
     20540     20526     20528     20541     20540     20526     20528     20542
     20541     20528     20530     20543     20541     20528     20530     20544
     20542     20528     20530     20543     20542     20528     20530     20544
     20551     20553     20555     20557     20551     20553     20555     20568
     20551     20553     20555     20569     20553     20555     20557     20559
     20553     20555     20557     20561     20555     20553     20551     20563
     20555     20553     20551     20564     20555     20553     20551     20565
     20555     20557     20559     20571     20555     20557     20561     20570
     20557     20555     20553     20566     20557     20555     20553     20567
     20559     20557     20555     20568     20559     20557     20555     20569
     20559     20557     20561     20570     20561     20557     20555     20568
     20561     20557     20555     20569     20561     20557     20559     20571
     20563     20551     20553     20566     20563     20551     20553     20567
     20564     20551     20553     20566     20564     20551     20553     20567
     20565     20551     20553     20566     20565     20551     20553     20567
     20566     20553     20555     20568     20566     20553     20555     20569
     20567     20553     20555     20568     20567     20553     20555     20569
     20576     20578     20580     20582     20576     20578     20580     20593
     20576     20578     20580     20594     20578     20580     20582     20584
     20578     20580     20582     20586     20580     20578     20576     20588
     20580     20578     20576     20589     20580     20578     20576     20590
     20580     20582     20584     20596     20580     20582     20586     20595
     20582     20580     20578     20591     20582     20580     20578     20592
     20584     20582     20580     20593     20584     20582     20580     20594
     20584     20582     20586     20595     20586     20582     20580     20593
     20586     20582     20580     20594     20586     20582     20584     20596
     20588     20576     20578     20591     20588     20576     20578     20592
     20589     20576     20578     20591     20589     20576     20578     20592
     20590     20576     20578     20591     20590     20576     20578     20592
     20591     20578     20580     20593     20591     20578     20580     20594
     20592     20578     20580     20593     20592     20578     20580     20594
     20601     20603     20605     20607     20601     20603     20605     20618
     20601     20603     20605     20619     20603     20605     20607     20609
     20603     20605     20607     20611     20605     20603     20601     20613
     20605     20603     20601     20614     20605     20603     20601     20615
     20605     20607     20609     20621     20605     20607     20611     20620
     20607     20605     20603     20616     20607     20605     20603     20617
     20609     20607     20605     20618     20609     20607     20605     20619
     20609     20607     20611     20620     20611     20607     20605     20618
     20611     20607     20605     20619     20611     20607     20609     20621
     20613     20601     20603     20616     20613     20601     20603     20617
     20614     20601     20603     20616     20614     20601     20603     20617
     20615     20601     20603     20616     20615     20601     20603     20617
     20616     20603     20605     20618     20616     20603     20605     20619
     20617     20603     20605     20618     20617     20603     20605     20619
     20626     20628     20630     20632     20626     20628     20630     20643
     20626     20628     20630     20644     20628     20630     20632     20634
     20628     20630     20632     20636     20630     20628     20626     20638
     20630     20628     20626     20639     20630     20628     20626     20640
     20630     20632     20634     20646     20630     20632     20636     20645
     20632     20630     20628     20641     20632     20630     20628     20642
     20634     20632     20630     20643     20634     20632     20630     20644
     20634     20632     20636     20645     20636     20632     20630     20643
     20636     20632     20630     20644     20636     20632     20634     20646
     20638     20626     20628     20641     20638     20626     20628     20642
     20639     20626     20628     20641     20639     20626     20628     20642
     20640     20626     20628     20641     20640     20626     20628     20642
     20641     20628     20630     20643     20641     20628     20630     20644
     20642     20628     20630     20643     20642     20628     20630     20644
     20651     20653     20655     20657     20651     20653     20655     20668
     20651     20653     20655     20669     20653     20655     20657     20659
     20653     20655     20657     20661     20655     20653     20651     20663
     20655     20653     20651     20664     20655     20653     20651     20665
     20655     20657     20659     20671     20655     20657     20661     20670
     20657     20655     20653     20666     20657     20655     20653     20667
     20659     20657     20655     20668     20659     20657     20655     20669
     20659     20657     20661     20670     20661     20657     20655     20668
     20661     20657     20655     20669     20661     20657     20659     20671
     20663     20651     20653     20666     20663     20651     20653     20667
     20664     20651     20653     20666     20664     20651     20653     20667
     20665     20651     20653     20666     20665     20651     20653     20667
     20666     20653     20655     20668     20666     20653     20655     20669
     20667     20653     20655     20668     20667     20653     20655     20669
     20676     20678     20680     20682     20676     20678     20680     20693
     20676     20678     20680     20694     20678     20680     20682     20684
     20678     20680     20682     20686     20680     20678     20676     20688
     20680     20678     20676     20689     20680     20678     20676     20690
     20680     20682     20684     20696     20680     20682     20686     20695
     20682     20680     20678     20691     20682     20680     20678     20692
     20684     20682     20680     20693     20684     20682     20680     20694
     20684     20682     20686     20695     20686     20682     20680     20693
     20686     20682     20680     20694     20686     20682     20684     20696
     20688     20676     20678     20691     20688     20676     20678     20692
     20689     20676     20678     20691     20689     20676     20678     20692
     20690     20676     20678     20691     20690     20676     20678     20692
     20691     20678     20680     20693     20691     20678     20680     20694
     20692     20678     20680     20693     20692     20678     20680     20694
     20701     20703     20705     20707     20701     20703     20705     20718
     20701     20703     20705     20719     20703     20705     20707     20709
     20703     20705     20707     20711     20705     20703     20701     20713
     20705     20703     20701     20714     20705     20703     20701     20715
     20705     20707     20709     20721     20705     20707     20711     20720
     20707     20705     20703     20716     20707     20705     20703     20717
     20709     20707     20705     20718     20709     20707     20705     20719
     20709     20707     20711     20720     20711     20707     20705     20718
     20711     20707     20705     20719     20711     20707     20709     20721
     20713     20701     20703     20716     20713     20701     20703     20717
     20714     20701     20703     20716     20714     20701     20703     20717
     20715     20701     20703     20716     20715     20701     20703     20717
     20716     20703     20705     20718     20716     20703     20705     20719
     20717     20703     20705     20718     20717     20703     20705     20719
     20726     20728     20730     20732     20726     20728     20730     20743
     20726     20728     20730     20744     20728     20730     20732     20734
     20728     20730     20732     20736     20730     20728     20726     20738
     20730     20728     20726     20739     20730     20728     20726     20740
     20730     20732     20734     20746     20730     20732     20736     20745
     20732     20730     20728     20741     20732     20730     20728     20742
     20734     20732     20730     20743     20734     20732     20730     20744
     20734     20732     20736     20745     20736     20732     20730     20743
     20736     20732     20730     20744     20736     20732     20734     20746
     20738     20726     20728     20741     20738     20726     20728     20742
     20739     20726     20728     20741     20739     20726     20728     20742
     20740     20726     20728     20741     20740     20726     20728     20742
     20741     20728     20730     20743     20741     20728     20730     20744
     20742     20728     20730     20743     20742     20728     20730     20744
     20751     20753     20755     20757     20751     20753     20755     20768
     20751     20753     20755     20769     20753     20755     20757     20759
     20753     20755     20757     20761     20755     20753     20751     20763
     20755     20753     20751     20764     20755     20753     20751     20765
     20755     20757     20759     20771     20755     20757     20761     20770
     20757     20755     20753     20766     20757     20755     20753     20767
     20759     20757     20755     20768     20759     20757     20755     20769
     20759     20757     20761     20770     20761     20757     20755     20768
     20761     20757     20755     20769     20761     20757     20759     20771
     20763     20751     20753     20766     20763     20751     20753     20767
     20764     20751     20753     20766     20764     20751     20753     20767
     20765     20751     20753     20766     20765     20751     20753     20767
     20766     20753     20755     20768     20766     20753     20755     20769
     20767     20753     20755     20768     20767     20753     20755     20769
     20776     20778     20780     20782     20776     20778     20780     20793
     20776     20778     20780     20794     20778     20780     20782     20784
     20778     20780     20782     20786     20780     20778     20776     20788
     20780     20778     20776     20789     20780     20778     20776     20790
     20780     20782     20784     20796     20780     20782     20786     20795
     20782     20780     20778     20791     20782     20780     20778     20792
     20784     20782     20780     20793     20784     20782     20780     20794
     20784     20782     20786     20795     20786     20782     20780     20793
     20786     20782     20780     20794     20786     20782     20784     20796
     20788     20776     20778     20791     20788     20776     20778     20792
     20789     20776     20778     20791     20789     20776     20778     20792
     20790     20776     20778     20791     20790     20776     20778     20792
     20791     20778     20780     20793     20791     20778     20780     20794
     20792     20778     20780     20793     20792     20778     20780     20794
     20801     20803     20805     20807     20801     20803     20805     20818
     20801     20803     20805     20819     20803     20805     20807     20809
     20803     20805     20807     20811     20805     20803     20801     20813
     20805     20803     20801     20814     20805     20803     20801     20815
     20805     20807     20809     20821     20805     20807     20811     20820
     20807     20805     20803     20816     20807     20805     20803     20817
     20809     20807     20805     20818     20809     20807     20805     20819
     20809     20807     20811     20820     20811     20807     20805     20818
     20811     20807     20805     20819     20811     20807     20809     20821
     20813     20801     20803     20816     20813     20801     20803     20817
     20814     20801     20803     20816     20814     20801     20803     20817
     20815     20801     20803     20816     20815     20801     20803     20817
     20816     20803     20805     20818     20816     20803     20805     20819
     20817     20803     20805     20818     20817     20803     20805     20819
     20826     20828     20830     20832     20826     20828     20830     20843
     20826     20828     20830     20844     20828     20830     20832     20834
     20828     20830     20832     20836     20830     20828     20826     20838
     20830     20828     20826     20839     20830     20828     20826     20840
     20830     20832     20834     20846     20830     20832     20836     20845
     20832     20830     20828     20841     20832     20830     20828     20842
     20834     20832     20830     20843     20834     20832     20830     20844
     20834     20832     20836     20845     20836     20832     20830     20843
     20836     20832     20830     20844     20836     20832     20834     20846
     20838     20826     20828     20841     20838     20826     20828     20842
     20839     20826     20828     20841     20839     20826     20828     20842
     20840     20826     20828     20841     20840     20826     20828     20842
     20841     20828     20830     20843     20841     20828     20830     20844
     20842     20828     20830     20843     20842     20828     20830     20844
     20851     20853     20855     20857     20851     20853     20855     20868
     20851     20853     20855     20869     20853     20855     20857     20859
     20853     20855     20857     20861     20855     20853     20851     20863
     20855     20853     20851     20864     20855     20853     20851     20865
     20855     20857     20859     20871     20855     20857     20861     20870
     20857     20855     20853     20866     20857     20855     20853     20867
     20859     20857     20855     20868     20859     20857     20855     20869
     20859     20857     20861     20870     20861     20857     20855     20868
     20861     20857     20855     20869     20861     20857     20859     20871
     20863     20851     20853     20866     20863     20851     20853     20867
     20864     20851     20853     20866     20864     20851     20853     20867
     20865     20851     20853     20866     20865     20851     20853     20867
     20866     20853     20855     20868     20866     20853     20855     20869
     20867     20853     20855     20868     20867     20853     20855     20869
     20876     20878     20880     20882     20876     20878     20880     20893
     20876     20878     20880     20894     20878     20880     20882     20884
     20878     20880     20882     20886     20880     20878     20876     20888
     20880     20878     20876     20889     20880     20878     20876     20890
     20880     20882     20884     20896     20880     20882     20886     20895
     20882     20880     20878     20891     20882     20880     20878     20892
     20884     20882     20880     20893     20884     20882     20880     20894
     20884     20882     20886     20895     20886     20882     20880     20893
     20886     20882     20880     20894     20886     20882     20884     20896
     20888     20876     20878     20891     20888     20876     20878     20892
     20889     20876     20878     20891     20889     20876     20878     20892
     20890     20876     20878     20891     20890     20876     20878     20892
     20891     20878     20880     20893     20891     20878     20880     20894
     20892     20878     20880     20893     20892     20878     20880     20894
     20901     20903     20905     20907     20901     20903     20905     20918
     20901     20903     20905     20919     20903     20905     20907     20909
     20903     20905     20907     20911     20905     20903     20901     20913
     20905     20903     20901     20914     20905     20903     20901     20915
     20905     20907     20909     20921     20905     20907     20911     20920
     20907     20905     20903     20916     20907     20905     20903     20917
     20909     20907     20905     20918     20909     20907     20905     20919
     20909     20907     20911     20920     20911     20907     20905     20918
     20911     20907     20905     20919     20911     20907     20909     20921
     20913     20901     20903     20916     20913     20901     20903     20917
     20914     20901     20903     20916     20914     20901     20903     20917
     20915     20901     20903     20916     20915     20901     20903     20917
     20916     20903     20905     20918     20916     20903     20905     20919
     20917     20903     20905     20918     20917     20903     20905     20919
     20926     20928     20930     20932     20926     20928     20930     20943
     20926     20928     20930     20944     20928     20930     20932     20934
     20928     20930     20932     20936     20930     20928     20926     20938
     20930     20928     20926     20939     20930     20928     20926     20940
     20930     20932     20934     20946     20930     20932     20936     20945
     20932     20930     20928     20941     20932     20930     20928     20942
     20934     20932     20930     20943     20934     20932     20930     20944
     20934     20932     20936     20945     20936     20932     20930     20943
     20936     20932     20930     20944     20936     20932     20934     20946
     20938     20926     20928     20941     20938     20926     20928     20942
     20939     20926     20928     20941     20939     20926     20928     20942
     20940     20926     20928     20941     20940     20926     20928     20942
     20941     20928     20930     20943     20941     20928     20930     20944
     20942     20928     20930     20943     20942     20928     20930     20944
     20951     20953     20955     20957     20951     20953     20955     20968
     20951     20953     20955     20969     20953     20955     20957     20959
     20953     20955     20957     20961     20955     20953     20951     20963
     20955     20953     20951     20964     20955     20953     20951     20965
     20955     20957     20959     20971     20955     20957     20961     20970
     20957     20955     20953     20966     20957     20955     20953     20967
     20959     20957     20955     20968     20959     20957     20955     20969
     20959     20957     20961     20970     20961     20957     20955     20968
     20961     20957     20955     20969     20961     20957     20959     20971
     20963     20951     20953     20966     20963     20951     20953     20967
     20964     20951     20953     20966     20964     20951     20953     20967
     20965     20951     20953     20966     20965     20951     20953     20967
     20966     20953     20955     20968     20966     20953     20955     20969
     20967     20953     20955     20968     20967     20953     20955     20969
     20976     20978     20980     20982     20976     20978     20980     20993
     20976     20978     20980     20994     20978     20980     20982     20984
     20978     20980     20982     20986     20980     20978     20976     20988
     20980     20978     20976     20989     20980     20978     20976     20990
     20980     20982     20984     20996     20980     20982     20986     20995
     20982     20980     20978     20991     20982     20980     20978     20992
     20984     20982     20980     20993     20984     20982     20980     20994
     20984     20982     20986     20995     20986     20982     20980     20993
     20986     20982     20980     20994     20986     20982     20984     20996
     20988     20976     20978     20991     20988     20976     20978     20992
     20989     20976     20978     20991     20989     20976     20978     20992
     20990     20976     20978     20991     20990     20976     20978     20992
     20991     20978     20980     20993     20991     20978     20980     20994
     20992     20978     20980     20993     20992     20978     20980     20994
     21001     21003     21005     21007     21001     21003     21005     21018
     21001     21003     21005     21019     21003     21005     21007     21009
     21003     21005     21007     21011     21005     21003     21001     21013
     21005     21003     21001     21014     21005     21003     21001     21015
     21005     21007     21009     21021     21005     21007     21011     21020
     21007     21005     21003     21016     21007     21005     21003     21017
     21009     21007     21005     21018     21009     21007     21005     21019
     21009     21007     21011     21020     21011     21007     21005     21018
     21011     21007     21005     21019     21011     21007     21009     21021
     21013     21001     21003     21016     21013     21001     21003     21017
     21014     21001     21003     21016     21014     21001     21003     21017
     21015     21001     21003     21016     21015     21001     21003     21017
     21016     21003     21005     21018     21016     21003     21005     21019
     21017     21003     21005     21018     21017     21003     21005     21019
     21026     21028     21030     21032     21026     21028     21030     21043
     21026     21028     21030     21044     21028     21030     21032     21034
     21028     21030     21032     21036     21030     21028     21026     21038
     21030     21028     21026     21039     21030     21028     21026     21040
     21030     21032     21034     21046     21030     21032     21036     21045
     21032     21030     21028     21041     21032     21030     21028     21042
     21034     21032     21030     21043     21034     21032     21030     21044
     21034     21032     21036     21045     21036     21032     21030     21043
     21036     21032     21030     21044     21036     21032     21034     21046
     21038     21026     21028     21041     21038     21026     21028     21042
     21039     21026     21028     21041     21039     21026     21028     21042
     21040     21026     21028     21041     21040     21026     21028     21042
     21041     21028     21030     21043     21041     21028     21030     21044
     21042     21028     21030     21043     21042     21028     21030     21044
     21051     21053     21055     21057     21051     21053     21055     21068
     21051     21053     21055     21069     21053     21055     21057     21059
     21053     21055     21057     21061     21055     21053     21051     21063
     21055     21053     21051     21064     21055     21053     21051     21065
     21055     21057     21059     21071     21055     21057     21061     21070
     21057     21055     21053     21066     21057     21055     21053     21067
     21059     21057     21055     21068     21059     21057     21055     21069
     21059     21057     21061     21070     21061     21057     21055     21068
     21061     21057     21055     21069     21061     21057     21059     21071
     21063     21051     21053     21066     21063     21051     21053     21067
     21064     21051     21053     21066     21064     21051     21053     21067
     21065     21051     21053     21066     21065     21051     21053     21067
     21066     21053     21055     21068     21066     21053     21055     21069
     21067     21053     21055     21068     21067     21053     21055     21069
     21076     21078     21080     21082     21076     21078     21080     21093
     21076     21078     21080     21094     21078     21080     21082     21084
     21078     21080     21082     21086     21080     21078     21076     21088
     21080     21078     21076     21089     21080     21078     21076     21090
     21080     21082     21084     21096     21080     21082     21086     21095
     21082     21080     21078     21091     21082     21080     21078     21092
     21084     21082     21080     21093     21084     21082     21080     21094
     21084     21082     21086     21095     21086     21082     21080     21093
     21086     21082     21080     21094     21086     21082     21084     21096
     21088     21076     21078     21091     21088     21076     21078     21092
     21089     21076     21078     21091     21089     21076     21078     21092
     21090     21076     21078     21091     21090     21076     21078     21092
     21091     21078     21080     21093     21091     21078     21080     21094
     21092     21078     21080     21093     21092     21078     21080     21094
     21101     21103     21105     21107     21101     21103     21105     21118
     21101     21103     21105     21119     21103     21105     21107     21109
     21103     21105     21107     21111     21105     21103     21101     21113
     21105     21103     21101     21114     21105     21103     21101     21115
     21105     21107     21109     21121     21105     21107     21111     21120
     21107     21105     21103     21116     21107     21105     21103     21117
     21109     21107     21105     21118     21109     21107     21105     21119
     21109     21107     21111     21120     21111     21107     21105     21118
     21111     21107     21105     21119     21111     21107     21109     21121
     21113     21101     21103     21116     21113     21101     21103     21117
     21114     21101     21103     21116     21114     21101     21103     21117
     21115     21101     21103     21116     21115     21101     21103     21117
     21116     21103     21105     21118     21116     21103     21105     21119
     21117     21103     21105     21118     21117     21103     21105     21119
     21126     21128     21130     21132     21126     21128     21130     21143
     21126     21128     21130     21144     21128     21130     21132     21134
     21128     21130     21132     21136     21130     21128     21126     21138
     21130     21128     21126     21139     21130     21128     21126     21140
     21130     21132     21134     21146     21130     21132     21136     21145
     21132     21130     21128     21141     21132     21130     21128     21142
     21134     21132     21130     21143     21134     21132     21130     21144
     21134     21132     21136     21145     21136     21132     21130     21143
     21136     21132     21130     21144     21136     21132     21134     21146
     21138     21126     21128     21141     21138     21126     21128     21142
     21139     21126     21128     21141     21139     21126     21128     21142
     21140     21126     21128     21141     21140     21126     21128     21142
     21141     21128     21130     21143     21141     21128     21130     21144
     21142     21128     21130     21143     21142     21128     21130     21144
     21151     21153     21155     21157     21151     21153     21155     21168
     21151     21153     21155     21169     21153     21155     21157     21159
     21153     21155     21157     21161     21155     21153     21151     21163
     21155     21153     21151     21164     21155     21153     21151     21165
     21155     21157     21159     21171     21155     21157     21161     21170
     21157     21155     21153     21166     21157     21155     21153     21167
     21159     21157     21155     21168     21159     21157     21155     21169
     21159     21157     21161     21170     21161     21157     21155     21168
     21161     21157     21155     21169     21161     21157     21159     21171
     21163     21151     21153     21166     21163     21151     21153     21167
     21164     21151     21153     21166     21164     21151     21153     21167
     21165     21151     21153     21166     21165     21151     21153     21167
     21166     21153     21155     21168     21166     21153     21155     21169
     21167     21153     21155     21168     21167     21153     21155     21169
     21176     21178     21180     21182     21176     21178     21180     21193
     21176     21178     21180     21194     21178     21180     21182     21184
     21178     21180     21182     21186     21180     21178     21176     21188
     21180     21178     21176     21189     21180     21178     21176     21190
     21180     21182     21184     21196     21180     21182     21186     21195
     21182     21180     21178     21191     21182     21180     21178     21192
     21184     21182     21180     21193     21184     21182     21180     21194
     21184     21182     21186     21195     21186     21182     21180     21193
     21186     21182     21180     21194     21186     21182     21184     21196
     21188     21176     21178     21191     21188     21176     21178     21192
     21189     21176     21178     21191     21189     21176     21178     21192
     21190     21176     21178     21191     21190     21176     21178     21192
     21191     21178     21180     21193     21191     21178     21180     21194
     21192     21178     21180     21193     21192     21178     21180     21194
     21201     21203     21205     21207     21201     21203     21205     21218
     21201     21203     21205     21219     21203     21205     21207     21209
     21203     21205     21207     21211     21205     21203     21201     21213
     21205     21203     21201     21214     21205     21203     21201     21215
     21205     21207     21209     21221     21205     21207     21211     21220
     21207     21205     21203     21216     21207     21205     21203     21217
     21209     21207     21205     21218     21209     21207     21205     21219
     21209     21207     21211     21220     21211     21207     21205     21218
     21211     21207     21205     21219     21211     21207     21209     21221
     21213     21201     21203     21216     21213     21201     21203     21217
     21214     21201     21203     21216     21214     21201     21203     21217
     21215     21201     21203     21216     21215     21201     21203     21217
     21216     21203     21205     21218     21216     21203     21205     21219
     21217     21203     21205     21218     21217     21203     21205     21219
     21226     21228     21230     21232     21226     21228     21230     21243
     21226     21228     21230     21244     21228     21230     21232     21234
     21228     21230     21232     21236     21230     21228     21226     21238
     21230     21228     21226     21239     21230     21228     21226     21240
     21230     21232     21234     21246     21230     21232     21236     21245
     21232     21230     21228     21241     21232     21230     21228     21242
     21234     21232     21230     21243     21234     21232     21230     21244
     21234     21232     21236     21245     21236     21232     21230     21243
     21236     21232     21230     21244     21236     21232     21234     21246
     21238     21226     21228     21241     21238     21226     21228     21242
     21239     21226     21228     21241     21239     21226     21228     21242
     21240     21226     21228     21241     21240     21226     21228     21242
     21241     21228     21230     21243     21241     21228     21230     21244
     21242     21228     21230     21243     21242     21228     21230     21244
     21251     21253     21255     21257     21251     21253     21255     21268
     21251     21253     21255     21269     21253     21255     21257     21259
     21253     21255     21257     21261     21255     21253     21251     21263
     21255     21253     21251     21264     21255     21253     21251     21265
     21255     21257     21259     21271     21255     21257     21261     21270
     21257     21255     21253     21266     21257     21255     21253     21267
     21259     21257     21255     21268     21259     21257     21255     21269
     21259     21257     21261     21270     21261     21257     21255     21268
     21261     21257     21255     21269     21261     21257     21259     21271
     21263     21251     21253     21266     21263     21251     21253     21267
     21264     21251     21253     21266     21264     21251     21253     21267
     21265     21251     21253     21266     21265     21251     21253     21267
     21266     21253     21255     21268     21266     21253     21255     21269
     21267     21253     21255     21268     21267     21253     21255     21269
     21276     21278     21280     21282     21276     21278     21280     21293
     21276     21278     21280     21294     21278     21280     21282     21284
     21278     21280     21282     21286     21280     21278     21276     21288
     21280     21278     21276     21289     21280     21278     21276     21290
     21280     21282     21284     21296     21280     21282     21286     21295
     21282     21280     21278     21291     21282     21280     21278     21292
     21284     21282     21280     21293     21284     21282     21280     21294
     21284     21282     21286     21295     21286     21282     21280     21293
     21286     21282     21280     21294     21286     21282     21284     21296
     21288     21276     21278     21291     21288     21276     21278     21292
     21289     21276     21278     21291     21289     21276     21278     21292
     21290     21276     21278     21291     21290     21276     21278     21292
     21291     21278     21280     21293     21291     21278     21280     21294
     21292     21278     21280     21293     21292     21278     21280     21294
     21301     21303     21305     21307     21301     21303     21305     21318
     21301     21303     21305     21319     21303     21305     21307     21309
     21303     21305     21307     21311     21305     21303     21301     21313
     21305     21303     21301     21314     21305     21303     21301     21315
     21305     21307     21309     21321     21305     21307     21311     21320
     21307     21305     21303     21316     21307     21305     21303     21317
     21309     21307     21305     21318     21309     21307     21305     21319
     21309     21307     21311     21320     21311     21307     21305     21318
     21311     21307     21305     21319     21311     21307     21309     21321
     21313     21301     21303     21316     21313     21301     21303     21317
     21314     21301     21303     21316     21314     21301     21303     21317
     21315     21301     21303     21316     21315     21301     21303     21317
     21316     21303     21305     21318     21316     21303     21305     21319
     21317     21303     21305     21318     21317     21303     21305     21319
     21326     21328     21330     21332     21326     21328     21330     21343
     21326     21328     21330     21344     21328     21330     21332     21334
     21328     21330     21332     21336     21330     21328     21326     21338
     21330     21328     21326     21339     21330     21328     21326     21340
     21330     21332     21334     21346     21330     21332     21336     21345
     21332     21330     21328     21341     21332     21330     21328     21342
     21334     21332     21330     21343     21334     21332     21330     21344
     21334     21332     21336     21345     21336     21332     21330     21343
     21336     21332     21330     21344     21336     21332     21334     21346
     21338     21326     21328     21341     21338     21326     21328     21342
     21339     21326     21328     21341     21339     21326     21328     21342
     21340     21326     21328     21341     21340     21326     21328     21342
     21341     21328     21330     21343     21341     21328     21330     21344
     21342     21328     21330     21343     21342     21328     21330     21344
     21351     21353     21355     21357     21351     21353     21355     21368
     21351     21353     21355     21369     21353     21355     21357     21359
     21353     21355     21357     21361     21355     21353     21351     21363
     21355     21353     21351     21364     21355     21353     21351     21365
     21355     21357     21359     21371     21355     21357     21361     21370
     21357     21355     21353     21366     21357     21355     21353     21367
     21359     21357     21355     21368     21359     21357     21355     21369
     21359     21357     21361     21370     21361     21357     21355     21368
     21361     21357     21355     21369     21361     21357     21359     21371
     21363     21351     21353     21366     21363     21351     21353     21367
     21364     21351     21353     21366     21364     21351     21353     21367
     21365     21351     21353     21366     21365     21351     21353     21367
     21366     21353     21355     21368     21366     21353     21355     21369
     21367     21353     21355     21368     21367     21353     21355     21369
     21376     21378     21380     21382     21376     21378     21380     21393
     21376     21378     21380     21394     21378     21380     21382     21384
     21378     21380     21382     21386     21380     21378     21376     21388
     21380     21378     21376     21389     21380     21378     21376     21390
     21380     21382     21384     21396     21380     21382     21386     21395
     21382     21380     21378     21391     21382     21380     21378     21392
     21384     21382     21380     21393     21384     21382     21380     21394
     21384     21382     21386     21395     21386     21382     21380     21393
     21386     21382     21380     21394     21386     21382     21384     21396
     21388     21376     21378     21391     21388     21376     21378     21392
     21389     21376     21378     21391     21389     21376     21378     21392
     21390     21376     21378     21391     21390     21376     21378     21392
     21391     21378     21380     21393     21391     21378     21380     21394
     21392     21378     21380     21393     21392     21378     21380     21394
     21401     21403     21405     21407     21401     21403     21405     21418
     21401     21403     21405     21419     21403     21405     21407     21409
     21403     21405     21407     21411     21405     21403     21401     21413
     21405     21403     21401     21414     21405     21403     21401     21415
     21405     21407     21409     21421     21405     21407     21411     21420
     21407     21405     21403     21416     21407     21405     21403     21417
     21409     21407     21405     21418     21409     21407     21405     21419
     21409     21407     21411     21420     21411     21407     21405     21418
     21411     21407     21405     21419     21411     21407     21409     21421
     21413     21401     21403     21416     21413     21401     21403     21417
     21414     21401     21403     21416     21414     21401     21403     21417
     21415     21401     21403     21416     21415     21401     21403     21417
     21416     21403     21405     21418     21416     21403     21405     21419
     21417     21403     21405     21418     21417     21403     21405     21419
     21426     21428     21430     21432     21426     21428     21430     21443
     21426     21428     21430     21444     21428     21430     21432     21434
     21428     21430     21432     21436     21430     21428     21426     21438
     21430     21428     21426     21439     21430     21428     21426     21440
     21430     21432     21434     21446     21430     21432     21436     21445
     21432     21430     21428     21441     21432     21430     21428     21442
     21434     21432     21430     21443     21434     21432     21430     21444
     21434     21432     21436     21445     21436     21432     21430     21443
     21436     21432     21430     21444     21436     21432     21434     21446
     21438     21426     21428     21441     21438     21426     21428     21442
     21439     21426     21428     21441     21439     21426     21428     21442
     21440     21426     21428     21441     21440     21426     21428     21442
     21441     21428     21430     21443     21441     21428     21430     21444
     21442     21428     21430     21443     21442     21428     21430     21444
     21451     21453     21455     21457     21451     21453     21455     21468
     21451     21453     21455     21469     21453     21455     21457     21459
     21453     21455     21457     21461     21455     21453     21451     21463
     21455     21453     21451     21464     21455     21453     21451     21465
     21455     21457     21459     21471     21455     21457     21461     21470
     21457     21455     21453     21466     21457     21455     21453     21467
     21459     21457     21455     21468     21459     21457     21455     21469
     21459     21457     21461     21470     21461     21457     21455     21468
     21461     21457     21455     21469     21461     21457     21459     21471
     21463     21451     21453     21466     21463     21451     21453     21467
     21464     21451     21453     21466     21464     21451     21453     21467
     21465     21451     21453     21466     21465     21451     21453     21467
     21466     21453     21455     21468     21466     21453     21455     21469
     21467     21453     21455     21468     21467     21453     21455     21469
     21476     21478     21480     21482     21476     21478     21480     21493
     21476     21478     21480     21494     21478     21480     21482     21484
     21478     21480     21482     21486     21480     21478     21476     21488
     21480     21478     21476     21489     21480     21478     21476     21490
     21480     21482     21484     21496     21480     21482     21486     21495
     21482     21480     21478     21491     21482     21480     21478     21492
     21484     21482     21480     21493     21484     21482     21480     21494
     21484     21482     21486     21495     21486     21482     21480     21493
     21486     21482     21480     21494     21486     21482     21484     21496
     21488     21476     21478     21491     21488     21476     21478     21492
     21489     21476     21478     21491     21489     21476     21478     21492
     21490     21476     21478     21491     21490     21476     21478     21492
     21491     21478     21480     21493     21491     21478     21480     21494
     21492     21478     21480     21493     21492     21478     21480     21494
     21501     21503     21505     21507     21501     21503     21505     21518
     21501     21503     21505     21519     21503     21505     21507     21509
     21503     21505     21507     21511     21505     21503     21501     21513
     21505     21503     21501     21514     21505     21503     21501     21515
     21505     21507     21509     21521     21505     21507     21511     21520
     21507     21505     21503     21516     21507     21505     21503     21517
     21509     21507     21505     21518     21509     21507     21505     21519
     21509     21507     21511     21520     21511     21507     21505     21518
     21511     21507     21505     21519     21511     21507     21509     21521
     21513     21501     21503     21516     21513     21501     21503     21517
     21514     21501     21503     21516     21514     21501     21503     21517
     21515     21501     21503     21516     21515     21501     21503     21517
     21516     21503     21505     21518     21516     21503     21505     21519
     21517     21503     21505     21518     21517     21503     21505     21519
     21526     21528     21530     21532     21526     21528     21530     21543
     21526     21528     21530     21544     21528     21530     21532     21534
     21528     21530     21532     21536     21530     21528     21526     21538
     21530     21528     21526     21539     21530     21528     21526     21540
     21530     21532     21534     21546     21530     21532     21536     21545
     21532     21530     21528     21541     21532     21530     21528     21542
     21534     21532     21530     21543     21534     21532     21530     21544
     21534     21532     21536     21545     21536     21532     21530     21543
     21536     21532     21530     21544     21536     21532     21534     21546
     21538     21526     21528     21541     21538     21526     21528     21542
     21539     21526     21528     21541     21539     21526     21528     21542
     21540     21526     21528     21541     21540     21526     21528     21542
     21541     21528     21530     21543     21541     21528     21530     21544
     21542     21528     21530     21543     21542     21528     21530     21544
     21551     21553     21555     21557     21551     21553     21555     21568
     21551     21553     21555     21569     21553     21555     21557     21559
     21553     21555     21557     21561     21555     21553     21551     21563
     21555     21553     21551     21564     21555     21553     21551     21565
     21555     21557     21559     21571     21555     21557     21561     21570
     21557     21555     21553     21566     21557     21555     21553     21567
     21559     21557     21555     21568     21559     21557     21555     21569
     21559     21557     21561     21570     21561     21557     21555     21568
     21561     21557     21555     21569     21561     21557     21559     21571
     21563     21551     21553     21566     21563     21551     21553     21567
     21564     21551     21553     21566     21564     21551     21553     21567
     21565     21551     21553     21566     21565     21551     21553     21567
     21566     21553     21555     21568     21566     21553     21555     21569
     21567     21553     21555     21568     21567     21553     21555     21569
     21576     21578     21580     21582     21576     21578     21580     21593
     21576     21578     21580     21594     21578     21580     21582     21584
     21578     21580     21582     21586     21580     21578     21576     21588
     21580     21578     21576     21589     21580     21578     21576     21590
     21580     21582     21584     21596     21580     21582     21586     21595
     21582     21580     21578     21591     21582     21580     21578     21592
     21584     21582     21580     21593     21584     21582     21580     21594
     21584     21582     21586     21595     21586     21582     21580     21593
     21586     21582     21580     21594     21586     21582     21584     21596
     21588     21576     21578     21591     21588     21576     21578     21592
     21589     21576     21578     21591     21589     21576     21578     21592
     21590     21576     21578     21591     21590     21576     21578     21592
     21591     21578     21580     21593     21591     21578     21580     21594
     21592     21578     21580     21593     21592     21578     21580     21594
     21601     21603     21605     21607     21601     21603     21605     21618
     21601     21603     21605     21619     21603     21605     21607     21609
     21603     21605     21607     21611     21605     21603     21601     21613
     21605     21603     21601     21614     21605     21603     21601     21615
     21605     21607     21609     21621     21605     21607     21611     21620
     21607     21605     21603     21616     21607     21605     21603     21617
     21609     21607     21605     21618     21609     21607     21605     21619
     21609     21607     21611     21620     21611     21607     21605     21618
     21611     21607     21605     21619     21611     21607     21609     21621
     21613     21601     21603     21616     21613     21601     21603     21617
     21614     21601     21603     21616     21614     21601     21603     21617
     21615     21601     21603     21616     21615     21601     21603     21617
     21616     21603     21605     21618     21616     21603     21605     21619
     21617     21603     21605     21618     21617     21603     21605     21619
     21626     21628     21630     21632     21626     21628     21630     21643
     21626     21628     21630     21644     21628     21630     21632     21634
     21628     21630     21632     21636     21630     21628     21626     21638
     21630     21628     21626     21639     21630     21628     21626     21640
     21630     21632     21634     21646     21630     21632     21636     21645
     21632     21630     21628     21641     21632     21630     21628     21642
     21634     21632     21630     21643     21634     21632     21630     21644
     21634     21632     21636     21645     21636     21632     21630     21643
     21636     21632     21630     21644     21636     21632     21634     21646
     21638     21626     21628     21641     21638     21626     21628     21642
     21639     21626     21628     21641     21639     21626     21628     21642
     21640     21626     21628     21641     21640     21626     21628     21642
     21641     21628     21630     21643     21641     21628     21630     21644
     21642     21628     21630     21643     21642     21628     21630     21644
     21651     21653     21655     21657     21651     21653     21655     21668
     21651     21653     21655     21669     21653     21655     21657     21659
     21653     21655     21657     21661     21655     21653     21651     21663
     21655     21653     21651     21664     21655     21653     21651     21665
     21655     21657     21659     21671     21655     21657     21661     21670
     21657     21655     21653     21666     21657     21655     21653     21667
     21659     21657     21655     21668     21659     21657     21655     21669
     21659     21657     21661     21670     21661     21657     21655     21668
     21661     21657     21655     21669     21661     21657     21659     21671
     21663     21651     21653     21666     21663     21651     21653     21667
     21664     21651     21653     21666     21664     21651     21653     21667
     21665     21651     21653     21666     21665     21651     21653     21667
     21666     21653     21655     21668     21666     21653     21655     21669
     21667     21653     21655     21668     21667     21653     21655     21669
     21676     21678     21680     21682     21676     21678     21680     21693
     21676     21678     21680     21694     21678     21680     21682     21684
     21678     21680     21682     21686     21680     21678     21676     21688
     21680     21678     21676     21689     21680     21678     21676     21690
     21680     21682     21684     21696     21680     21682     21686     21695
     21682     21680     21678     21691     21682     21680     21678     21692
     21684     21682     21680     21693     21684     21682     21680     21694
     21684     21682     21686     21695     21686     21682     21680     21693
     21686     21682     21680     21694     21686     21682     21684     21696
     21688     21676     21678     21691     21688     21676     21678     21692
     21689     21676     21678     21691     21689     21676     21678     21692
     21690     21676     21678     21691     21690     21676     21678     21692
     21691     21678     21680     21693     21691     21678     21680     21694
     21692     21678     21680     21693     21692     21678     21680     21694
     21701     21703     21705     21707     21701     21703     21705     21718
     21701     21703     21705     21719     21703     21705     21707     21709
     21703     21705     21707     21711     21705     21703     21701     21713
     21705     21703     21701     21714     21705     21703     21701     21715
     21705     21707     21709     21721     21705     21707     21711     21720
     21707     21705     21703     21716     21707     21705     21703     21717
     21709     21707     21705     21718     21709     21707     21705     21719
     21709     21707     21711     21720     21711     21707     21705     21718
     21711     21707     21705     21719     21711     21707     21709     21721
     21713     21701     21703     21716     21713     21701     21703     21717
     21714     21701     21703     21716     21714     21701     21703     21717
     21715     21701     21703     21716     21715     21701     21703     21717
     21716     21703     21705     21718     21716     21703     21705     21719
     21717     21703     21705     21718     21717     21703     21705     21719
     21726     21728     21730     21732     21726     21728     21730     21743
     21726     21728     21730     21744     21728     21730     21732     21734
     21728     21730     21732     21736     21730     21728     21726     21738
     21730     21728     21726     21739     21730     21728     21726     21740
     21730     21732     21734     21746     21730     21732     21736     21745
     21732     21730     21728     21741     21732     21730     21728     21742
     21734     21732     21730     21743     21734     21732     21730     21744
     21734     21732     21736     21745     21736     21732     21730     21743
     21736     21732     21730     21744     21736     21732     21734     21746
     21738     21726     21728     21741     21738     21726     21728     21742
     21739     21726     21728     21741     21739     21726     21728     21742
     21740     21726     21728     21741     21740     21726     21728     21742
     21741     21728     21730     21743     21741     21728     21730     21744
     21742     21728     21730     21743     21742     21728     21730     21744
     21751     21753     21755     21757     21751     21753     21755     21768
     21751     21753     21755     21769     21753     21755     21757     21759
     21753     21755     21757     21761     21755     21753     21751     21763
     21755     21753     21751     21764     21755     21753     21751     21765
     21755     21757     21759     21771     21755     21757     21761     21770
     21757     21755     21753     21766     21757     21755     21753     21767
     21759     21757     21755     21768     21759     21757     21755     21769
     21759     21757     21761     21770     21761     21757     21755     21768
     21761     21757     21755     21769     21761     21757     21759     21771
     21763     21751     21753     21766     21763     21751     21753     21767
     21764     21751     21753     21766     21764     21751     21753     21767
     21765     21751     21753     21766     21765     21751     21753     21767
     21766     21753     21755     21768     21766     21753     21755     21769
     21767     21753     21755     21768     21767     21753     21755     21769
     21776     21778     21780     21782     21776     21778     21780     21793
     21776     21778     21780     21794     21778     21780     21782     21784
     21778     21780     21782     21786     21780     21778     21776     21788
     21780     21778     21776     21789     21780     21778     21776     21790
     21780     21782     21784     21796     21780     21782     21786     21795
     21782     21780     21778     21791     21782     21780     21778     21792
     21784     21782     21780     21793     21784     21782     21780     21794
     21784     21782     21786     21795     21786     21782     21780     21793
     21786     21782     21780     21794     21786     21782     21784     21796
     21788     21776     21778     21791     21788     21776     21778     21792
     21789     21776     21778     21791     21789     21776     21778     21792
     21790     21776     21778     21791     21790     21776     21778     21792
     21791     21778     21780     21793     21791     21778     21780     21794
     21792     21778     21780     21793     21792     21778     21780     21794
     21801     21803     21805     21807     21801     21803     21805     21818
     21801     21803     21805     21819     21803     21805     21807     21809
     21803     21805     21807     21811     21805     21803     21801     21813
     21805     21803     21801     21814     21805     21803     21801     21815
     21805     21807     21809     21821     21805     21807     21811     21820
     21807     21805     21803     21816     21807     21805     21803     21817
     21809     21807     21805     21818     21809     21807     21805     21819
     21809     21807     21811     21820     21811     21807     21805     21818
     21811     21807     21805     21819     21811     21807     21809     21821
     21813     21801     21803     21816     21813     21801     21803     21817
     21814     21801     21803     21816     21814     21801     21803     21817
     21815     21801     21803     21816     21815     21801     21803     21817
     21816     21803     21805     21818     21816     21803     21805     21819
     21817     21803     21805     21818     21817     21803     21805     21819
     21826     21828     21830     21832     21826     21828     21830     21843
     21826     21828     21830     21844     21828     21830     21832     21834
     21828     21830     21832     21836     21830     21828     21826     21838
     21830     21828     21826     21839     21830     21828     21826     21840
     21830     21832     21834     21846     21830     21832     21836     21845
     21832     21830     21828     21841     21832     21830     21828     21842
     21834     21832     21830     21843     21834     21832     21830     21844
     21834     21832     21836     21845     21836     21832     21830     21843
     21836     21832     21830     21844     21836     21832     21834     21846
     21838     21826     21828     21841     21838     21826     21828     21842
     21839     21826     21828     21841     21839     21826     21828     21842
     21840     21826     21828     21841     21840     21826     21828     21842
     21841     21828     21830     21843     21841     21828     21830     21844
     21842     21828     21830     21843     21842     21828     21830     21844
     21851     21853     21855     21857     21851     21853     21855     21868
     21851     21853     21855     21869     21853     21855     21857     21859
     21853     21855     21857     21861     21855     21853     21851     21863
     21855     21853     21851     21864     21855     21853     21851     21865
     21855     21857     21859     21871     21855     21857     21861     21870
     21857     21855     21853     21866     21857     21855     21853     21867
     21859     21857     21855     21868     21859     21857     21855     21869
     21859     21857     21861     21870     21861     21857     21855     21868
     21861     21857     21855     21869     21861     21857     21859     21871
     21863     21851     21853     21866     21863     21851     21853     21867
     21864     21851     21853     21866     21864     21851     21853     21867
     21865     21851     21853     21866     21865     21851     21853     21867
     21866     21853     21855     21868     21866     21853     21855     21869
     21867     21853     21855     21868     21867     21853     21855     21869
     21876     21878     21880     21882     21876     21878     21880     21893
     21876     21878     21880     21894     21878     21880     21882     21884
     21878     21880     21882     21886     21880     21878     21876     21888
     21880     21878     21876     21889     21880     21878     21876     21890
     21880     21882     21884     21896     21880     21882     21886     21895
     21882     21880     21878     21891     21882     21880     21878     21892
     21884     21882     21880     21893     21884     21882     21880     21894
     21884     21882     21886     21895     21886     21882     21880     21893
     21886     21882     21880     21894     21886     21882     21884     21896
     21888     21876     21878     21891     21888     21876     21878     21892
     21889     21876     21878     21891     21889     21876     21878     21892
     21890     21876     21878     21891     21890     21876     21878     21892
     21891     21878     21880     21893     21891     21878     21880     21894
     21892     21878     21880     21893     21892     21878     21880     21894
     21901     21903     21905     21907     21901     21903     21905     21918
     21901     21903     21905     21919     21903     21905     21907     21909
     21903     21905     21907     21911     21905     21903     21901     21913
     21905     21903     21901     21914     21905     21903     21901     21915
     21905     21907     21909     21921     21905     21907     21911     21920
     21907     21905     21903     21916     21907     21905     21903     21917
     21909     21907     21905     21918     21909     21907     21905     21919
     21909     21907     21911     21920     21911     21907     21905     21918
     21911     21907     21905     21919     21911     21907     21909     21921
     21913     21901     21903     21916     21913     21901     21903     21917
     21914     21901     21903     21916     21914     21901     21903     21917
     21915     21901     21903     21916     21915     21901     21903     21917
     21916     21903     21905     21918     21916     21903     21905     21919
     21917     21903     21905     21918     21917     21903     21905     21919
     21926     21928     21930     21932     21926     21928     21930     21943
     21926     21928     21930     21944     21928     21930     21932     21934
     21928     21930     21932     21936     21930     21928     21926     21938
     21930     21928     21926     21939     21930     21928     21926     21940
     21930     21932     21934     21946     21930     21932     21936     21945
     21932     21930     21928     21941     21932     21930     21928     21942
     21934     21932     21930     21943     21934     21932     21930     21944
     21934     21932     21936     21945     21936     21932     21930     21943
     21936     21932     21930     21944     21936     21932     21934     21946
     21938     21926     21928     21941     21938     21926     21928     21942
     21939     21926     21928     21941     21939     21926     21928     21942
     21940     21926     21928     21941     21940     21926     21928     21942
     21941     21928     21930     21943     21941     21928     21930     21944
     21942     21928     21930     21943     21942     21928     21930     21944
     21951     21953     21955     21957     21951     21953     21955     21968
     21951     21953     21955     21969     21953     21955     21957     21959
     21953     21955     21957     21961     21955     21953     21951     21963
     21955     21953     21951     21964     21955     21953     21951     21965
     21955     21957     21959     21971     21955     21957     21961     21970
     21957     21955     21953     21966     21957     21955     21953     21967
     21959     21957     21955     21968     21959     21957     21955     21969
     21959     21957     21961     21970     21961     21957     21955     21968
     21961     21957     21955     21969     21961     21957     21959     21971
     21963     21951     21953     21966     21963     21951     21953     21967
     21964     21951     21953     21966     21964     21951     21953     21967
     21965     21951     21953     21966     21965     21951     21953     21967
     21966     21953     21955     21968     21966     21953     21955     21969
     21967     21953     21955     21968     21967     21953     21955     21969
     21976     21978     21980     21982     21976     21978     21980     21993
     21976     21978     21980     21994     21978     21980     21982     21984
     21978     21980     21982     21986     21980     21978     21976     21988
     21980     21978     21976     21989     21980     21978     21976     21990
     21980     21982     21984     21996     21980     21982     21986     21995
     21982     21980     21978     21991     21982     21980     21978     21992
     21984     21982     21980     21993     21984     21982     21980     21994
     21984     21982     21986     21995     21986     21982     21980     21993
     21986     21982     21980     21994     21986     21982     21984     21996
     21988     21976     21978     21991     21988     21976     21978     21992
     21989     21976     21978     21991     21989     21976     21978     21992
     21990     21976     21978     21991     21990     21976     21978     21992
     21991     21978     21980     21993     21991     21978     21980     21994
     21992     21978     21980     21993     21992     21978     21980     21994
     22001     22003     22005     22007     22001     22003     22005     22018
     22001     22003     22005     22019     22003     22005     22007     22009
     22003     22005     22007     22011     22005     22003     22001     22013
     22005     22003     22001     22014     22005     22003     22001     22015
     22005     22007     22009     22021     22005     22007     22011     22020
     22007     22005     22003     22016     22007     22005     22003     22017
     22009     22007     22005     22018     22009     22007     22005     22019
     22009     22007     22011     22020     22011     22007     22005     22018
     22011     22007     22005     22019     22011     22007     22009     22021
     22013     22001     22003     22016     22013     22001     22003     22017
     22014     22001     22003     22016     22014     22001     22003     22017
     22015     22001     22003     22016     22015     22001     22003     22017
     22016     22003     22005     22018     22016     22003     22005     22019
     22017     22003     22005     22018     22017     22003     22005     22019
     22026     22028     22030     22032     22026     22028     22030     22043
     22026     22028     22030     22044     22028     22030     22032     22034
     22028     22030     22032     22036     22030     22028     22026     22038
     22030     22028     22026     22039     22030     22028     22026     22040
     22030     22032     22034     22046     22030     22032     22036     22045
     22032     22030     22028     22041     22032     22030     22028     22042
     22034     22032     22030     22043     22034     22032     22030     22044
     22034     22032     22036     22045     22036     22032     22030     22043
     22036     22032     22030     22044     22036     22032     22034     22046
     22038     22026     22028     22041     22038     22026     22028     22042
     22039     22026     22028     22041     22039     22026     22028     22042
     22040     22026     22028     22041     22040     22026     22028     22042
     22041     22028     22030     22043     22041     22028     22030     22044
     22042     22028     22030     22043     22042     22028     22030     22044
     22051     22053     22055     22057     22051     22053     22055     22068
     22051     22053     22055     22069     22053     22055     22057     22059
     22053     22055     22057     22061     22055     22053     22051     22063
     22055     22053     22051     22064     22055     22053     22051     22065
     22055     22057     22059     22071     22055     22057     22061     22070
     22057     22055     22053     22066     22057     22055     22053     22067
     22059     22057     22055     22068     22059     22057     22055     22069
     22059     22057     22061     22070     22061     22057     22055     22068
     22061     22057     22055     22069     22061     22057     22059     22071
     22063     22051     22053     22066     22063     22051     22053     22067
     22064     22051     22053     22066     22064     22051     22053     22067
     22065     22051     22053     22066     22065     22051     22053     22067
     22066     22053     22055     22068     22066     22053     22055     22069
     22067     22053     22055     22068     22067     22053     22055     22069
     22076     22078     22080     22082     22076     22078     22080     22093
     22076     22078     22080     22094     22078     22080     22082     22084
     22078     22080     22082     22086     22080     22078     22076     22088
     22080     22078     22076     22089     22080     22078     22076     22090
     22080     22082     22084     22096     22080     22082     22086     22095
     22082     22080     22078     22091     22082     22080     22078     22092
     22084     22082     22080     22093     22084     22082     22080     22094
     22084     22082     22086     22095     22086     22082     22080     22093
     22086     22082     22080     22094     22086     22082     22084     22096
     22088     22076     22078     22091     22088     22076     22078     22092
     22089     22076     22078     22091     22089     22076     22078     22092
     22090     22076     22078     22091     22090     22076     22078     22092
     22091     22078     22080     22093     22091     22078     22080     22094
     22092     22078     22080     22093     22092     22078     22080     22094
     22101     22103     22105     22107     22101     22103     22105     22118
     22101     22103     22105     22119     22103     22105     22107     22109
     22103     22105     22107     22111     22105     22103     22101     22113
     22105     22103     22101     22114     22105     22103     22101     22115
     22105     22107     22109     22121     22105     22107     22111     22120
     22107     22105     22103     22116     22107     22105     22103     22117
     22109     22107     22105     22118     22109     22107     22105     22119
     22109     22107     22111     22120     22111     22107     22105     22118
     22111     22107     22105     22119     22111     22107     22109     22121
     22113     22101     22103     22116     22113     22101     22103     22117
     22114     22101     22103     22116     22114     22101     22103     22117
     22115     22101     22103     22116     22115     22101     22103     22117
     22116     22103     22105     22118     22116     22103     22105     22119
     22117     22103     22105     22118     22117     22103     22105     22119
     22126     22128     22130     22132     22126     22128     22130     22143
     22126     22128     22130     22144     22128     22130     22132     22134
     22128     22130     22132     22136     22130     22128     22126     22138
     22130     22128     22126     22139     22130     22128     22126     22140
     22130     22132     22134     22146     22130     22132     22136     22145
     22132     22130     22128     22141     22132     22130     22128     22142
     22134     22132     22130     22143     22134     22132     22130     22144
     22134     22132     22136     22145     22136     22132     22130     22143
     22136     22132     22130     22144     22136     22132     22134     22146
     22138     22126     22128     22141     22138     22126     22128     22142
     22139     22126     22128     22141     22139     22126     22128     22142
     22140     22126     22128     22141     22140     22126     22128     22142
     22141     22128     22130     22143     22141     22128     22130     22144
     22142     22128     22130     22143     22142     22128     22130     22144
     22151     22153     22155     22157     22151     22153     22155     22168
     22151     22153     22155     22169     22153     22155     22157     22159
     22153     22155     22157     22161     22155     22153     22151     22163
     22155     22153     22151     22164     22155     22153     22151     22165
     22155     22157     22159     22171     22155     22157     22161     22170
     22157     22155     22153     22166     22157     22155     22153     22167
     22159     22157     22155     22168     22159     22157     22155     22169
     22159     22157     22161     22170     22161     22157     22155     22168
     22161     22157     22155     22169     22161     22157     22159     22171
     22163     22151     22153     22166     22163     22151     22153     22167
     22164     22151     22153     22166     22164     22151     22153     22167
     22165     22151     22153     22166     22165     22151     22153     22167
     22166     22153     22155     22168     22166     22153     22155     22169
     22167     22153     22155     22168     22167     22153     22155     22169
     22176     22178     22180     22182     22176     22178     22180     22193
     22176     22178     22180     22194     22178     22180     22182     22184
     22178     22180     22182     22186     22180     22178     22176     22188
     22180     22178     22176     22189     22180     22178     22176     22190
     22180     22182     22184     22196     22180     22182     22186     22195
     22182     22180     22178     22191     22182     22180     22178     22192
     22184     22182     22180     22193     22184     22182     22180     22194
     22184     22182     22186     22195     22186     22182     22180     22193
     22186     22182     22180     22194     22186     22182     22184     22196
     22188     22176     22178     22191     22188     22176     22178     22192
     22189     22176     22178     22191     22189     22176     22178     22192
     22190     22176     22178     22191     22190     22176     22178     22192
     22191     22178     22180     22193     22191     22178     22180     22194
     22192     22178     22180     22193     22192     22178     22180     22194
     22201     22203     22205     22207     22201     22203     22205     22218
     22201     22203     22205     22219     22203     22205     22207     22209
     22203     22205     22207     22211     22205     22203     22201     22213
     22205     22203     22201     22214     22205     22203     22201     22215
     22205     22207     22209     22221     22205     22207     22211     22220
     22207     22205     22203     22216     22207     22205     22203     22217
     22209     22207     22205     22218     22209     22207     22205     22219
     22209     22207     22211     22220     22211     22207     22205     22218
     22211     22207     22205     22219     22211     22207     22209     22221
     22213     22201     22203     22216     22213     22201     22203     22217
     22214     22201     22203     22216     22214     22201     22203     22217
     22215     22201     22203     22216     22215     22201     22203     22217
     22216     22203     22205     22218     22216     22203     22205     22219
     22217     22203     22205     22218     22217     22203     22205     22219
     22226     22228     22230     22232     22226     22228     22230     22243
     22226     22228     22230     22244     22228     22230     22232     22234
     22228     22230     22232     22236     22230     22228     22226     22238
     22230     22228     22226     22239     22230     22228     22226     22240
     22230     22232     22234     22246     22230     22232     22236     22245
     22232     22230     22228     22241     22232     22230     22228     22242
     22234     22232     22230     22243     22234     22232     22230     22244
     22234     22232     22236     22245     22236     22232     22230     22243
     22236     22232     22230     22244     22236     22232     22234     22246
     22238     22226     22228     22241     22238     22226     22228     22242
     22239     22226     22228     22241     22239     22226     22228     22242
     22240     22226     22228     22241     22240     22226     22228     22242
     22241     22228     22230     22243     22241     22228     22230     22244
     22242     22228     22230     22243     22242     22228     22230     22244
     22251     22253     22255     22257     22251     22253     22255     22268
     22251     22253     22255     22269     22253     22255     22257     22259
     22253     22255     22257     22261     22255     22253     22251     22263
     22255     22253     22251     22264     22255     22253     22251     22265
     22255     22257     22259     22271     22255     22257     22261     22270
     22257     22255     22253     22266     22257     22255     22253     22267
     22259     22257     22255     22268     22259     22257     22255     22269
     22259     22257     22261     22270     22261     22257     22255     22268
     22261     22257     22255     22269     22261     22257     22259     22271
     22263     22251     22253     22266     22263     22251     22253     22267
     22264     22251     22253     22266     22264     22251     22253     22267
     22265     22251     22253     22266     22265     22251     22253     22267
     22266     22253     22255     22268     22266     22253     22255     22269
     22267     22253     22255     22268     22267     22253     22255     22269
     22276     22278     22280     22282     22276     22278     22280     22293
     22276     22278     22280     22294     22278     22280     22282     22284
     22278     22280     22282     22286     22280     22278     22276     22288
     22280     22278     22276     22289     22280     22278     22276     22290
     22280     22282     22284     22296     22280     22282     22286     22295
     22282     22280     22278     22291     22282     22280     22278     22292
     22284     22282     22280     22293     22284     22282     22280     22294
     22284     22282     22286     22295     22286     22282     22280     22293
     22286     22282     22280     22294     22286     22282     22284     22296
     22288     22276     22278     22291     22288     22276     22278     22292
     22289     22276     22278     22291     22289     22276     22278     22292
     22290     22276     22278     22291     22290     22276     22278     22292
     22291     22278     22280     22293     22291     22278     22280     22294
     22292     22278     22280     22293     22292     22278     22280     22294
     22301     22303     22305     22307     22301     22303     22305     22318
     22301     22303     22305     22319     22303     22305     22307     22309
     22303     22305     22307     22311     22305     22303     22301     22313
     22305     22303     22301     22314     22305     22303     22301     22315
     22305     22307     22309     22321     22305     22307     22311     22320
     22307     22305     22303     22316     22307     22305     22303     22317
     22309     22307     22305     22318     22309     22307     22305     22319
     22309     22307     22311     22320     22311     22307     22305     22318
     22311     22307     22305     22319     22311     22307     22309     22321
     22313     22301     22303     22316     22313     22301     22303     22317
     22314     22301     22303     22316     22314     22301     22303     22317
     22315     22301     22303     22316     22315     22301     22303     22317
     22316     22303     22305     22318     22316     22303     22305     22319
     22317     22303     22305     22318     22317     22303     22305     22319
     22326     22328     22330     22332     22326     22328     22330     22343
     22326     22328     22330     22344     22328     22330     22332     22334
     22328     22330     22332     22336     22330     22328     22326     22338
     22330     22328     22326     22339     22330     22328     22326     22340
     22330     22332     22334     22346     22330     22332     22336     22345
     22332     22330     22328     22341     22332     22330     22328     22342
     22334     22332     22330     22343     22334     22332     22330     22344
     22334     22332     22336     22345     22336     22332     22330     22343
     22336     22332     22330     22344     22336     22332     22334     22346
     22338     22326     22328     22341     22338     22326     22328     22342
     22339     22326     22328     22341     22339     22326     22328     22342
     22340     22326     22328     22341     22340     22326     22328     22342
     22341     22328     22330     22343     22341     22328     22330     22344
     22342     22328     22330     22343     22342     22328     22330     22344
     22351     22353     22355     22357     22351     22353     22355     22368
     22351     22353     22355     22369     22353     22355     22357     22359
     22353     22355     22357     22361     22355     22353     22351     22363
     22355     22353     22351     22364     22355     22353     22351     22365
     22355     22357     22359     22371     22355     22357     22361     22370
     22357     22355     22353     22366     22357     22355     22353     22367
     22359     22357     22355     22368     22359     22357     22355     22369
     22359     22357     22361     22370     22361     22357     22355     22368
     22361     22357     22355     22369     22361     22357     22359     22371
     22363     22351     22353     22366     22363     22351     22353     22367
     22364     22351     22353     22366     22364     22351     22353     22367
     22365     22351     22353     22366     22365     22351     22353     22367
     22366     22353     22355     22368     22366     22353     22355     22369
     22367     22353     22355     22368     22367     22353     22355     22369
     22376     22378     22380     22382     22376     22378     22380     22393
     22376     22378     22380     22394     22378     22380     22382     22384
     22378     22380     22382     22386     22380     22378     22376     22388
     22380     22378     22376     22389     22380     22378     22376     22390
     22380     22382     22384     22396     22380     22382     22386     22395
     22382     22380     22378     22391     22382     22380     22378     22392
     22384     22382     22380     22393     22384     22382     22380     22394
     22384     22382     22386     22395     22386     22382     22380     22393
     22386     22382     22380     22394     22386     22382     22384     22396
     22388     22376     22378     22391     22388     22376     22378     22392
     22389     22376     22378     22391     22389     22376     22378     22392
     22390     22376     22378     22391     22390     22376     22378     22392
     22391     22378     22380     22393     22391     22378     22380     22394
     22392     22378     22380     22393     22392     22378     22380     22394
     22401     22403     22405     22407     22401     22403     22405     22418
     22401     22403     22405     22419     22403     22405     22407     22409
     22403     22405     22407     22411     22405     22403     22401     22413
     22405     22403     22401     22414     22405     22403     22401     22415
     22405     22407     22409     22421     22405     22407     22411     22420
     22407     22405     22403     22416     22407     22405     22403     22417
     22409     22407     22405     22418     22409     22407     22405     22419
     22409     22407     22411     22420     22411     22407     22405     22418
     22411     22407     22405     22419     22411     22407     22409     22421
     22413     22401     22403     22416     22413     22401     22403     22417
     22414     22401     22403     22416     22414     22401     22403     22417
     22415     22401     22403     22416     22415     22401     22403     22417
     22416     22403     22405     22418     22416     22403     22405     22419
     22417     22403     22405     22418     22417     22403     22405     22419
     22426     22428     22430     22432     22426     22428     22430     22443
     22426     22428     22430     22444     22428     22430     22432     22434
     22428     22430     22432     22436     22430     22428     22426     22438
     22430     22428     22426     22439     22430     22428     22426     22440
     22430     22432     22434     22446     22430     22432     22436     22445
     22432     22430     22428     22441     22432     22430     22428     22442
     22434     22432     22430     22443     22434     22432     22430     22444
     22434     22432     22436     22445     22436     22432     22430     22443
     22436     22432     22430     22444     22436     22432     22434     22446
     22438     22426     22428     22441     22438     22426     22428     22442
     22439     22426     22428     22441     22439     22426     22428     22442
     22440     22426     22428     22441     22440     22426     22428     22442
     22441     22428     22430     22443     22441     22428     22430     22444
     22442     22428     22430     22443     22442     22428     22430     22444
     22451     22453     22455     22457     22451     22453     22455     22468
     22451     22453     22455     22469     22453     22455     22457     22459
     22453     22455     22457     22461     22455     22453     22451     22463
     22455     22453     22451     22464     22455     22453     22451     22465
     22455     22457     22459     22471     22455     22457     22461     22470
     22457     22455     22453     22466     22457     22455     22453     22467
     22459     22457     22455     22468     22459     22457     22455     22469
     22459     22457     22461     22470     22461     22457     22455     22468
     22461     22457     22455     22469     22461     22457     22459     22471
     22463     22451     22453     22466     22463     22451     22453     22467
     22464     22451     22453     22466     22464     22451     22453     22467
     22465     22451     22453     22466     22465     22451     22453     22467
     22466     22453     22455     22468     22466     22453     22455     22469
     22467     22453     22455     22468     22467     22453     22455     22469
     22476     22478     22480     22482     22476     22478     22480     22493
     22476     22478     22480     22494     22478     22480     22482     22484
     22478     22480     22482     22486     22480     22478     22476     22488
     22480     22478     22476     22489     22480     22478     22476     22490
     22480     22482     22484     22496     22480     22482     22486     22495
     22482     22480     22478     22491     22482     22480     22478     22492
     22484     22482     22480     22493     22484     22482     22480     22494
     22484     22482     22486     22495     22486     22482     22480     22493
     22486     22482     22480     22494     22486     22482     22484     22496
     22488     22476     22478     22491     22488     22476     22478     22492
     22489     22476     22478     22491     22489     22476     22478     22492
     22490     22476     22478     22491     22490     22476     22478     22492
     22491     22478     22480     22493     22491     22478     22480     22494
     22492     22478     22480     22493     22492     22478     22480     22494

      2500 !NIMPHI: impropers
         8        11         6        10        11         8        17        13
        14         6        17        16        17        14        11        19
         6        14         8         1        28        31        26        30
        31        28        37        33        34        26        37        36
        37        34        31        39        26        34        28        21
        48        51        46        50        51        48        57        53
        54        46        57        56        57        54        51        59
        46        54        48        41        68        71        66        70
        71        68        77        73        74        66        77        76
        77        74        71        79        66        74        68        61
        88        91        86        90        91        88        97        93
        94        86        97        96        97        94        91        99
        86        94        88        81       108       111       106       110
       111       108       117       113       114       106       117       116
       117       114       111       119       106       114       108       101
       128       131       126       130       131       128       137       133
       134       126       137       136       137       134       131       139
       126       134       128       121       148       151       146       150
       151       148       157       153       154       146       157       156
       157       154       151       159       146       154       148       141
       168       171       166       170       171       168       177       173
       174       166       177       176       177       174       171       179
       166       174       168       161       188       191       186       190
       191       188       197       193       194       186       197       196
       197       194       191       199       186       194       188       181
       208       211       206       210       211       208       217       213
       214       206       217       216       217       214       211       219
       206       214       208       201       228       231       226       230
       231       228       237       233       234       226       237       236
       237       234       231       239       226       234       228       221
       248       251       246       250       251       248       257       253
       254       246       257       256       257       254       251       259
       246       254       248       241       268       271       266       270
       271       268       277       273       274       266       277       276
       277       274       271       279       266       274       268       261
       288       291       286       290       291       288       297       293
       294       286       297       296       297       294       291       299
       286       294       288       281       308       311       306       310
       311       308       317       313       314       306       317       316
       317       314       311       319       306       314       308       301
       328       331       326       330       331       328       337       333
       334       326       337       336       337       334       331       339
       326       334       328       321       348       351       346       350
       351       348       357       353       354       346       357       356
       357       354       351       359       346       354       348       341
       368       371       366       370       371       368       377       373
       374       366       377       376       377       374       371       379
       366       374       368       361       388       391       386       390
       391       388       397       393       394       386       397       396
       397       394       391       399       386       394       388       381
       408       411       406       410       411       408       417       413
       414       406       417       416       417       414       411       419
       406       414       408       401       428       431       426       430
       431       428       437       433       434       426       437       436
       437       434       431       439       426       434       428       421
       448       451       446       450       451       448       457       453
       454       446       457       456       457       454       451       459
       446       454       448       441       468       471       466       470
       471       468       477       473       474       466       477       476
       477       474       471       479       466       474       468       461
       488       491       486       490       491       488       497       493
       494       486       497       496       497       494       491       499
       486       494       488       481       508       511       506       510
       511       508       517       513       514       506       517       516
       517       514       511       519       506       514       508       501
       528       531       526       530       531       528       537       533
       534       526       537       536       537       534       531       539
       526       534       528       521       548       551       546       550
       551       548       557       553       554       546       557       556
       557       554       551       559       546       554       548       541
       568       571       566       570       571       568       577       573
       574       566       577       576       577       574       571       579
       566       574       568       561       588       591       586       590
       591       588       597       593       594       586       597       596
       597       594       591       599       586       594       588       581
       608       611       606       610       611       608       617       613
       614       606       617       616       617       614       611       619
       606       614       608       601       628       631       626       630
       631       628       637       633       634       626       637       636
       637       634       631       639       626       634       628       621
       648       651       646       650       651       648       657       653
       654       646       657       656       657       654       651       659
       646       654       648       641       668       671       666       670
       671       668       677       673       674       666       677       676
       677       674       671       679       666       674       668       661
       688       691       686       690       691       688       697       693
       694       686       697       696       697       694       691       699
       686       694       688       681       708       711       706       710
       711       708       717       713       714       706       717       716
       717       714       711       719       706       714       708       701
       728       731       726       730       731       728       737       733
       734       726       737       736       737       734       731       739
       726       734       728       721       748       751       746       750
       751       748       757       753       754       746       757       756
       757       754       751       759       746       754       748       741
       768       771       766       770       771       768       777       773
       774       766       777       776       777       774       771       779
       766       774       768       761       788       791       786       790
       791       788       797       793       794       786       797       796
       797       794       791       799       786       794       788       781
       808       811       806       810       811       808       817       813
       814       806       817       816       817       814       811       819
       806       814       808       801       828       831       826       830
       831       828       837       833       834       826       837       836
       837       834       831       839       826       834       828       821
       848       851       846       850       851       848       857       853
       854       846       857       856       857       854       851       859
       846       854       848       841       868       871       866       870
       871       868       877       873       874       866       877       876
       877       874       871       879       866       874       868       861
       888       891       886       890       891       888       897       893
       894       886       897       896       897       894       891       899
       886       894       888       881       908       911       906       910
       911       908       917       913       914       906       917       916
       917       914       911       919       906       914       908       901
       928       931       926       930       931       928       937       933
       934       926       937       936       937       934       931       939
       926       934       928       921       948       951       946       950
       951       948       957       953       954       946       957       956
       957       954       951       959       946       954       948       941
       968       971       966       970       971       968       977       973
       974       966       977       976       977       974       971       979
       966       974       968       961       988       991       986       990
       991       988       997       993       994       986       997       996
       997       994       991       999       986       994       988       981
      1008      1011      1006      1010      1011      1008      1017      1013
      1014      1006      1017      1016      1017      1014      1011      1019
      1006      1014      1008      1001      1028      1031      1026      1030
      1031      1028      1037      1033      1034      1026      1037      1036
      1037      1034      1031      1039      1026      1034      1028      1021
      1048      1051      1046      1050      1051      1048      1057      1053
      1054      1046      1057      1056      1057      1054      1051      1059
      1046      1054      1048      1041      1068      1071      1066      1070
      1071      1068      1077      1073      1074      1066      1077      1076
      1077      1074      1071      1079      1066      1074      1068      1061
      1088      1091      1086      1090      1091      1088      1097      1093
      1094      1086      1097      1096      1097      1094      1091      1099
      1086      1094      1088      1081      1108      1111      1106      1110
      1111      1108      1117      1113      1114      1106      1117      1116
      1117      1114      1111      1119      1106      1114      1108      1101
      1128      1131      1126      1130      1131      1128      1137      1133
      1134      1126      1137      1136      1137      1134      1131      1139
      1126      1134      1128      1121      1148      1151      1146      1150
      1151      1148      1157      1153      1154      1146      1157      1156
      1157      1154      1151      1159      1146      1154      1148      1141
      1168      1171      1166      1170      1171      1168      1177      1173
      1174      1166      1177      1176      1177      1174      1171      1179
      1166      1174      1168      1161      1188      1191      1186      1190
      1191      1188      1197      1193      1194      1186      1197      1196
      1197      1194      1191      1199      1186      1194      1188      1181
      1208      1211      1206      1210      1211      1208      1217      1213
      1214      1206      1217      1216      1217      1214      1211      1219
      1206      1214      1208      1201      1228      1231      1226      1230
      1231      1228      1237      1233      1234      1226      1237      1236
      1237      1234      1231      1239      1226      1234      1228      1221
      1248      1251      1246      1250      1251      1248      1257      1253
      1254      1246      1257      1256      1257      1254      1251      1259
      1246      1254      1248      1241      1268      1271      1266      1270
      1271      1268      1277      1273      1274      1266      1277      1276
      1277      1274      1271      1279      1266      1274      1268      1261
      1288      1291      1286      1290      1291      1288      1297      1293
      1294      1286      1297      1296      1297      1294      1291      1299
      1286      1294      1288      1281      1308      1311      1306      1310
      1311      1308      1317      1313      1314      1306      1317      1316
      1317      1314      1311      1319      1306      1314      1308      1301
      1328      1331      1326      1330      1331      1328      1337      1333
      1334      1326      1337      1336      1337      1334      1331      1339
      1326      1334      1328      1321      1348      1351      1346      1350
      1351      1348      1357      1353      1354      1346      1357      1356
      1357      1354      1351      1359      1346      1354      1348      1341
      1368      1371      1366      1370      1371      1368      1377      1373
      1374      1366      1377      1376      1377      1374      1371      1379
      1366      1374      1368      1361      1388      1391      1386      1390
      1391      1388      1397      1393      1394      1386      1397      1396
      1397      1394      1391      1399      1386      1394      1388      1381
      1408      1411      1406      1410      1411      1408      1417      1413
      1414      1406      1417      1416      1417      1414      1411      1419
      1406      1414      1408      1401      1428      1431      1426      1430
      1431      1428      1437      1433      1434      1426      1437      1436
      1437      1434      1431      1439      1426      1434      1428      1421
      1448      1451      1446      1450      1451      1448      1457      1453
      1454      1446      1457      1456      1457      1454      1451      1459
      1446      1454      1448      1441      1468      1471      1466      1470
      1471      1468      1477      1473      1474      1466      1477      1476
      1477      1474      1471      1479      1466      1474      1468      1461
      1488      1491      1486      1490      1491      1488      1497      1493
      1494      1486      1497      1496      1497      1494      1491      1499
      1486      1494      1488      1481      1508      1511      1506      1510
      1511      1508      1517      1513      1514      1506      1517      1516
      1517      1514      1511      1519      1506      1514      1508      1501
      1528      1531      1526      1530      1531      1528      1537      1533
      1534      1526      1537      1536      1537      1534      1531      1539
      1526      1534      1528      1521      1548      1551      1546      1550
      1551      1548      1557      1553      1554      1546      1557      1556
      1557      1554      1551      1559      1546      1554      1548      1541
      1568      1571      1566      1570      1571      1568      1577      1573
      1574      1566      1577      1576      1577      1574      1571      1579
      1566      1574      1568      1561      1588      1591      1586      1590
      1591      1588      1597      1593      1594      1586      1597      1596
      1597      1594      1591      1599      1586      1594      1588      1581
      1608      1611      1606      1610      1611      1608      1617      1613
      1614      1606      1617      1616      1617      1614      1611      1619
      1606      1614      1608      1601      1628      1631      1626      1630
      1631      1628      1637      1633      1634      1626      1637      1636
      1637      1634      1631      1639      1626      1634      1628      1621
      1648      1651      1646      1650      1651      1648      1657      1653
      1654      1646      1657      1656      1657      1654      1651      1659
      1646      1654      1648      1641      1668      1671      1666      1670
      1671      1668      1677      1673      1674      1666      1677      1676
      1677      1674      1671      1679      1666      1674      1668      1661
      1688      1691      1686      1690      1691      1688      1697      1693
      1694      1686      1697      1696      1697      1694      1691      1699
      1686      1694      1688      1681      1708      1711      1706      1710
      1711      1708      1717      1713      1714      1706      1717      1716
      1717      1714      1711      1719      1706      1714      1708      1701
      1728      1731      1726      1730      1731      1728      1737      1733
      1734      1726      1737      1736      1737      1734      1731      1739
      1726      1734      1728      1721      1748      1751      1746      1750
      1751      1748      1757      1753      1754      1746      1757      1756
      1757      1754      1751      1759      1746      1754      1748      1741
      1768      1771      1766      1770      1771      1768      1777      1773
      1774      1766      1777      1776      1777      1774      1771      1779
      1766      1774      1768      1761      1788      1791      1786      1790
      1791      1788      1797      1793      1794      1786      1797      1796
      1797      1794      1791      1799      1786      1794      1788      1781
      1808      1811      1806      1810      1811      1808      1817      1813
      1814      1806      1817      1816      1817      1814      1811      1819
      1806      1814      1808      1801      1828      1831      1826      1830
      1831      1828      1837      1833      1834      1826      1837      1836
      1837      1834      1831      1839      1826      1834      1828      1821
      1848      1851      1846      1850      1851      1848      1857      1853
      1854      1846      1857      1856      1857      1854      1851      1859
      1846      1854      1848      1841      1868      1871      1866      1870
      1871      1868      1877      1873      1874      1866      1877      1876
      1877      1874      1871      1879      1866      1874      1868      1861
      1888      1891      1886      1890      1891      1888      1897      1893
      1894      1886      1897      1896      1897      1894      1891      1899
      1886      1894      1888      1881      1908      1911      1906      1910
      1911      1908      1917      1913      1914      1906      1917      1916
      1917      1914      1911      1919      1906      1914      1908      1901
      1928      1931      1926      1930      1931      1928      1937      1933
      1934      1926      1937      1936      1937      1934      1931      1939
      1926      1934      1928      1921      1948      1951      1946      1950
      1951      1948      1957      1953      1954      1946      1957      1956
      1957      1954      1951      1959      1946      1954      1948      1941
      1968      1971      1966      1970      1971      1968      1977      1973
      1974      1966      1977      1976      1977      1974      1971      1979
      1966      1974      1968      1961      1988      1991      1986      1990
      1991      1988      1997      1993      1994      1986      1997      1996
      1997      1994      1991      1999      1986      1994      1988      1981
      2008      2011      2006      2010      2011      2008      2017      2013
      2014      2006      2017      2016      2017      2014      2011      2019
      2006      2014      2008      2001      2028      2031      2026      2030
      2031      2028      2037      2033      2034      2026      2037      2036
      2037      2034      2031      2039      2026      2034      2028      2021
      2048      2051      2046      2050      2051      2048      2057      2053
      2054      2046      2057      2056      2057      2054      2051      2059
      2046      2054      2048      2041      2068      2071      2066      2070
      2071      2068      2077      2073      2074      2066      2077      2076
      2077      2074      2071      2079      2066      2074      2068      2061
      2088      2091      2086      2090      2091      2088      2097      2093
      2094      2086      2097      2096      2097      2094      2091      2099
      2086      2094      2088      2081      2108      2111      2106      2110
      2111      2108      2117      2113      2114      2106      2117      2116
      2117      2114      2111      2119      2106      2114      2108      2101
      2128      2131      2126      2130      2131      2128      2137      2133
      2134      2126      2137      2136      2137      2134      2131      2139
      2126      2134      2128      2121      2148      2151      2146      2150
      2151      2148      2157      2153      2154      2146      2157      2156
      2157      2154      2151      2159      2146      2154      2148      2141
      2168      2171      2166      2170      2171      2168      2177      2173
      2174      2166      2177      2176      2177      2174      2171      2179
      2166      2174      2168      2161      2188      2191      2186      2190
      2191      2188      2197      2193      2194      2186      2197      2196
      2197      2194      2191      2199      2186      2194      2188      2181
      2208      2211      2206      2210      2211      2208      2217      2213
      2214      2206      2217      2216      2217      2214      2211      2219
      2206      2214      2208      2201      2228      2231      2226      2230
      2231      2228      2237      2233      2234      2226      2237      2236
      2237      2234      2231      2239      2226      2234      2228      2221
      2248      2251      2246      2250      2251      2248      2257      2253
      2254      2246      2257      2256      2257      2254      2251      2259
      2246      2254      2248      2241      2268      2271      2266      2270
      2271      2268      2277      2273      2274      2266      2277      2276
      2277      2274      2271      2279      2266      2274      2268      2261
      2288      2291      2286      2290      2291      2288      2297      2293
      2294      2286      2297      2296      2297      2294      2291      2299
      2286      2294      2288      2281      2308      2311      2306      2310
      2311      2308      2317      2313      2314      2306      2317      2316
      2317      2314      2311      2319      2306      2314      2308      2301
      2328      2331      2326      2330      2331      2328      2337      2333
      2334      2326      2337      2336      2337      2334      2331      2339
      2326      2334      2328      2321      2348      2351      2346      2350
      2351      2348      2357      2353      2354      2346      2357      2356
      2357      2354      2351      2359      2346      2354      2348      2341
      2368      2371      2366      2370      2371      2368      2377      2373
      2374      2366      2377      2376      2377      2374      2371      2379
      2366      2374      2368      2361      2388      2391      2386      2390
      2391      2388      2397      2393      2394      2386      2397      2396
      2397      2394      2391      2399      2386      2394      2388      2381
      2408      2411      2406      2410      2411      2408      2417      2413
      2414      2406      2417      2416      2417      2414      2411      2419
      2406      2414      2408      2401      2428      2431      2426      2430
      2431      2428      2437      2433      2434      2426      2437      2436
      2437      2434      2431      2439      2426      2434      2428      2421
      2448      2451      2446      2450      2451      2448      2457      2453
      2454      2446      2457      2456      2457      2454      2451      2459
      2446      2454      2448      2441      2468      2471      2466      2470
      2471      2468      2477      2473      2474      2466      2477      2476
      2477      2474      2471      2479      2466      2474      2468      2461
      2488      2491      2486      2490      2491      2488      2497      2493
      2494      2486      2497      2496      2497      2494      2491      2499
      2486      2494      2488      2481      2508      2511      2506      2510
      2511      2508      2517      2513      2514      2506      2517      2516
      2517      2514      2511      2519      2506      2514      2508      2501
      2528      2531      2526      2530      2531      2528      2537      2533
      2534      2526      2537      2536      2537      2534      2531      2539
      2526      2534      2528      2521      2548      2551      2546      2550
      2551      2548      2557      2553      2554      2546      2557      2556
      2557      2554      2551      2559      2546      2554      2548      2541
      2568      2571      2566      2570      2571      2568      2577      2573
      2574      2566      2577      2576      2577      2574      2571      2579
      2566      2574      2568      2561      2588      2591      2586      2590
      2591      2588      2597      2593      2594      2586      2597      2596
      2597      2594      2591      2599      2586      2594      2588      2581
      2608      2611      2606      2610      2611      2608      2617      2613
      2614      2606      2617      2616      2617      2614      2611      2619
      2606      2614      2608      2601      2628      2631      2626      2630
      2631      2628      2637      2633      2634      2626      2637      2636
      2637      2634      2631      2639      2626      2634      2628      2621
      2648      2651      2646      2650      2651      2648      2657      2653
      2654      2646      2657      2656      2657      2654      2651      2659
      2646      2654      2648      2641      2668      2671      2666      2670
      2671      2668      2677      2673      2674      2666      2677      2676
      2677      2674      2671      2679      2666      2674      2668      2661
      2688      2691      2686      2690      2691      2688      2697      2693
      2694      2686      2697      2696      2697      2694      2691      2699
      2686      2694      2688      2681      6083      6086      6081      6085
      6086      6083      6092      6088      6089      6081      6092      6091
      6092      6089      6086      6094      6081      6089      6083      6076
      6103      6106      6101      6105      6106      6103      6112      6108
      6109      6101      6112      6111      6112      6109      6106      6114
      6101      6109      6103      6096      6123      6126      6121      6125
      6126      6123      6132      6128      6129      6121      6132      6131
      6132      6129      6126      6134      6121      6129      6123      6116
      6143      6146      6141      6145      6146      6143      6152      6148
      6149      6141      6152      6151      6152      6149      6146      6154
      6141      6149      6143      6136      6163      6166      6161      6165
      6166      6163      6172      6168      6169      6161      6172      6171
      6172      6169      6166      6174      6161      6169      6163      6156
      6183      6186      6181      6185      6186      6183      6192      6188
      6189      6181      6192      6191      6192      6189      6186      6194
      6181      6189      6183      6176      6203      6206      6201      6205
      6206      6203      6212      6208      6209      6201      6212      6211
      6212      6209      6206      6214      6201      6209      6203      6196
      6223      6226      6221      6225      6226      6223      6232      6228
      6229      6221      6232      6231      6232      6229      6226      6234
      6221      6229      6223      6216      6243      6246      6241      6245
      6246      6243      6252      6248      6249      6241      6252      6251
      6252      6249      6246      6254      6241      6249      6243      6236
      6263      6266      6261      6265      6266      6263      6272      6268
      6269      6261      6272      6271      6272      6269      6266      6274
      6261      6269      6263      6256      6283      6286      6281      6285
      6286      6283      6292      6288      6289      6281      6292      6291
      6292      6289      6286      6294      6281      6289      6283      6276
      6303      6306      6301      6305      6306      6303      6312      6308
      6309      6301      6312      6311      6312      6309      6306      6314
      6301      6309      6303      6296      6323      6326      6321      6325
      6326      6323      6332      6328      6329      6321      6332      6331
      6332      6329      6326      6334      6321      6329      6323      6316
      6343      6346      6341      6345      6346      6343      6352      6348
      6349      6341      6352      6351      6352      6349      6346      6354
      6341      6349      6343      6336      6363      6366      6361      6365
      6366      6363      6372      6368      6369      6361      6372      6371
      6372      6369      6366      6374      6361      6369      6363      6356
      6383      6386      6381      6385      6386      6383      6392      6388
      6389      6381      6392      6391      6392      6389      6386      6394
      6381      6389      6383      6376      6403      6406      6401      6405
      6406      6403      6412      6408      6409      6401      6412      6411
      6412      6409      6406      6414      6401      6409      6403      6396
      6423      6426      6421      6425      6426      6423      6432      6428
      6429      6421      6432      6431      6432      6429      6426      6434
      6421      6429      6423      6416      6443      6446      6441      6445
      6446      6443      6452      6448      6449      6441      6452      6451
      6452      6449      6446      6454      6441      6449      6443      6436
      6463      6466      6461      6465      6466      6463      6472      6468
      6469      6461      6472      6471      6472      6469      6466      6474
      6461      6469      6463      6456      6483      6486      6481      6485
      6486      6483      6492      6488      6489      6481      6492      6491
      6492      6489      6486      6494      6481      6489      6483      6476
      6503      6506      6501      6505      6506      6503      6512      6508
      6509      6501      6512      6511      6512      6509      6506      6514
      6501      6509      6503      6496      6523      6526      6521      6525
      6526      6523      6532      6528      6529      6521      6532      6531
      6532      6529      6526      6534      6521      6529      6523      6516
      6543      6546      6541      6545      6546      6543      6552      6548
      6549      6541      6552      6551      6552      6549      6546      6554
      6541      6549      6543      6536      6563      6566      6561      6565
      6566      6563      6572      6568      6569      6561      6572      6571
      6572      6569      6566      6574      6561      6569      6563      6556
      6583      6586      6581      6585      6586      6583      6592      6588
      6589      6581      6592      6591      6592      6589      6586      6594
      6581      6589      6583      6576      6603      6606      6601      6605
      6606      6603      6612      6608      6609      6601      6612      6611
      6612      6609      6606      6614      6601      6609      6603      6596
      6623      6626      6621      6625      6626      6623      6632      6628
      6629      6621      6632      6631      6632      6629      6626      6634
      6621      6629      6623      6616      6643      6646      6641      6645
      6646      6643      6652      6648      6649      6641      6652      6651
      6652      6649      6646      6654      6641      6649      6643      6636
      6663      6666      6661      6665      6666      6663      6672      6668
      6669      6661      6672      6671      6672      6669      6666      6674
      6661      6669      6663      6656      6683      6686      6681      6685
      6686      6683      6692      6688      6689      6681      6692      6691
      6692      6689      6686      6694      6681      6689      6683      6676
      6703      6706      6701      6705      6706      6703      6712      6708
      6709      6701      6712      6711      6712      6709      6706      6714
      6701      6709      6703      6696      6723      6726      6721      6725
      6726      6723      6732      6728      6729      6721      6732      6731
      6732      6729      6726      6734      6721      6729      6723      6716
      6743      6746      6741      6745      6746      6743      6752      6748
      6749      6741      6752      6751      6752      6749      6746      6754
      6741      6749      6743      6736      6763      6766      6761      6765
      6766      6763      6772      6768      6769      6761      6772      6771
      6772      6769      6766      6774      6761      6769      6763      6756
      6783      6786      6781      6785      6786      6783      6792      6788
      6789      6781      6792      6791      6792      6789      6786      6794
      6781      6789      6783      6776      6803      6806      6801      6805
      6806      6803      6812      6808      6809      6801      6812      6811
      6812      6809      6806      6814      6801      6809      6803      6796
      6823      6826      6821      6825      6826      6823      6832      6828
      6829      6821      6832      6831      6832      6829      6826      6834
      6821      6829      6823      6816      6843      6846      6841      6845
      6846      6843      6852      6848      6849      6841      6852      6851
      6852      6849      6846      6854      6841      6849      6843      6836
      6863      6866      6861      6865      6866      6863      6872      6868
      6869      6861      6872      6871      6872      6869      6866      6874
      6861      6869      6863      6856      6883      6886      6881      6885
      6886      6883      6892      6888      6889      6881      6892      6891
      6892      6889      6886      6894      6881      6889      6883      6876
      6903      6906      6901      6905      6906      6903      6912      6908
      6909      6901      6912      6911      6912      6909      6906      6914
      6901      6909      6903      6896      6923      6926      6921      6925
      6926      6923      6932      6928      6929      6921      6932      6931
      6932      6929      6926      6934      6921      6929      6923      6916
      6943      6946      6941      6945      6946      6943      6952      6948
      6949      6941      6952      6951      6952      6949      6946      6954
      6941      6949      6943      6936      6963      6966      6961      6965
      6966      6963      6972      6968      6969      6961      6972      6971
      6972      6969      6966      6974      6961      6969      6963      6956
      6983      6986      6981      6985      6986      6983      6992      6988
      6989      6981      6992      6991      6992      6989      6986      6994
      6981      6989      6983      6976      7003      7006      7001      7005
      7006      7003      7012      7008      7009      7001      7012      7011
      7012      7009      7006      7014      7001      7009      7003      6996
      7023      7026      7021      7025      7026      7023      7032      7028
      7029      7021      7032      7031      7032      7029      7026      7034
      7021      7029      7023      7016      7043      7046      7041      7045
      7046      7043      7052      7048      7049      7041      7052      7051
      7052      7049      7046      7054      7041      7049      7043      7036
      7063      7066      7061      7065      7066      7063      7072      7068
      7069      7061      7072      7071      7072      7069      7066      7074
      7061      7069      7063      7056      7083      7086      7081      7085
      7086      7083      7092      7088      7089      7081      7092      7091
      7092      7089      7086      7094      7081      7089      7083      7076
      7103      7106      7101      7105      7106      7103      7112      7108
      7109      7101      7112      7111      7112      7109      7106      7114
      7101      7109      7103      7096      7123      7126      7121      7125
      7126      7123      7132      7128      7129      7121      7132      7131
      7132      7129      7126      7134      7121      7129      7123      7116
      7143      7146      7141      7145      7146      7143      7152      7148
      7149      7141      7152      7151      7152      7149      7146      7154
      7141      7149      7143      7136      7163      7166      7161      7165
      7166      7163      7172      7168      7169      7161      7172      7171
      7172      7169      7166      7174      7161      7169      7163      7156
      7183      7186      7181      7185      7186      7183      7192      7188
      7189      7181      7192      7191      7192      7189      7186      7194
      7181      7189      7183      7176      7203      7206      7201      7205
      7206      7203      7212      7208      7209      7201      7212      7211
      7212      7209      7206      7214      7201      7209      7203      7196
      7223      7226      7221      7225      7226      7223      7232      7228
      7229      7221      7232      7231      7232      7229      7226      7234
      7221      7229      7223      7216      7243      7246      7241      7245
      7246      7243      7252      7248      7249      7241      7252      7251
      7252      7249      7246      7254      7241      7249      7243      7236
      7263      7266      7261      7265      7266      7263      7272      7268
      7269      7261      7272      7271      7272      7269      7266      7274
      7261      7269      7263      7256      7283      7286      7281      7285
      7286      7283      7292      7288      7289      7281      7292      7291
      7292      7289      7286      7294      7281      7289      7283      7276
      7303      7306      7301      7305      7306      7303      7312      7308
      7309      7301      7312      7311      7312      7309      7306      7314
      7301      7309      7303      7296      7323      7326      7321      7325
      7326      7323      7332      7328      7329      7321      7332      7331
      7332      7329      7326      7334      7321      7329      7323      7316
      7343      7346      7341      7345      7346      7343      7352      7348
      7349      7341      7352      7351      7352      7349      7346      7354
      7341      7349      7343      7336      7363      7366      7361      7365
      7366      7363      7372      7368      7369      7361      7372      7371
      7372      7369      7366      7374      7361      7369      7363      7356
      7383      7386      7381      7385      7386      7383      7392      7388
      7389      7381      7392      7391      7392      7389      7386      7394
      7381      7389      7383      7376      7403      7406      7401      7405
      7406      7403      7412      7408      7409      7401      7412      7411
      7412      7409      7406      7414      7401      7409      7403      7396
      7423      7426      7421      7425      7426      7423      7432      7428
      7429      7421      7432      7431      7432      7429      7426      7434
      7421      7429      7423      7416      7443      7446      7441      7445
      7446      7443      7452      7448      7449      7441      7452      7451
      7452      7449      7446      7454      7441      7449      7443      7436
      7463      7466      7461      7465      7466      7463      7472      7468
      7469      7461      7472      7471      7472      7469      7466      7474
      7461      7469      7463      7456      7483      7486      7481      7485
      7486      7483      7492      7488      7489      7481      7492      7491
      7492      7489      7486      7494      7481      7489      7483      7476
      7503      7506      7501      7505      7506      7503      7512      7508
      7509      7501      7512      7511      7512      7509      7506      7514
      7501      7509      7503      7496      7523      7526      7521      7525
      7526      7523      7532      7528      7529      7521      7532      7531
      7532      7529      7526      7534      7521      7529      7523      7516
      7543      7546      7541      7545      7546      7543      7552      7548
      7549      7541      7552      7551      7552      7549      7546      7554
      7541      7549      7543      7536      7563      7566      7561      7565
      7566      7563      7572      7568      7569      7561      7572      7571
      7572      7569      7566      7574      7561      7569      7563      7556
      7583      7586      7581      7585      7586      7583      7592      7588
      7589      7581      7592      7591      7592      7589      7586      7594
      7581      7589      7583      7576      7603      7606      7601      7605
      7606      7603      7612      7608      7609      7601      7612      7611
      7612      7609      7606      7614      7601      7609      7603      7596
      7623      7626      7621      7625      7626      7623      7632      7628
      7629      7621      7632      7631      7632      7629      7626      7634
      7621      7629      7623      7616      7643      7646      7641      7645
      7646      7643      7652      7648      7649      7641      7652      7651
      7652      7649      7646      7654      7641      7649      7643      7636
      7663      7666      7661      7665      7666      7663      7672      7668
      7669      7661      7672      7671      7672      7669      7666      7674
      7661      7669      7663      7656      7683      7686      7681      7685
      7686      7683      7692      7688      7689      7681      7692      7691
      7692      7689      7686      7694      7681      7689      7683      7676
      7703      7706      7701      7705      7706      7703      7712      7708
      7709      7701      7712      7711      7712      7709      7706      7714
      7701      7709      7703      7696      7723      7726      7721      7725
      7726      7723      7732      7728      7729      7721      7732      7731
      7732      7729      7726      7734      7721      7729      7723      7716
      7743      7746      7741      7745      7746      7743      7752      7748
      7749      7741      7752      7751      7752      7749      7746      7754
      7741      7749      7743      7736      7763      7766      7761      7765
      7766      7763      7772      7768      7769      7761      7772      7771
      7772      7769      7766      7774      7761      7769      7763      7756
      7783      7786      7781      7785      7786      7783      7792      7788
      7789      7781      7792      7791      7792      7789      7786      7794
      7781      7789      7783      7776      7803      7806      7801      7805
      7806      7803      7812      7808      7809      7801      7812      7811
      7812      7809      7806      7814      7801      7809      7803      7796
      7823      7826      7821      7825      7826      7823      7832      7828
      7829      7821      7832      7831      7832      7829      7826      7834
      7821      7829      7823      7816      7843      7846      7841      7845
      7846      7843      7852      7848      7849      7841      7852      7851
      7852      7849      7846      7854      7841      7849      7843      7836
      7863      7866      7861      7865      7866      7863      7872      7868
      7869      7861      7872      7871      7872      7869      7866      7874
      7861      7869      7863      7856      7883      7886      7881      7885
      7886      7883      7892      7888      7889      7881      7892      7891
      7892      7889      7886      7894      7881      7889      7883      7876
      7903      7906      7901      7905      7906      7903      7912      7908
      7909      7901      7912      7911      7912      7909      7906      7914
      7901      7909      7903      7896      7923      7926      7921      7925
      7926      7923      7932      7928      7929      7921      7932      7931
      7932      7929      7926      7934      7921      7929      7923      7916
      7943      7946      7941      7945      7946      7943      7952      7948
      7949      7941      7952      7951      7952      7949      7946      7954
      7941      7949      7943      7936      7963      7966      7961      7965
      7966      7963      7972      7968      7969      7961      7972      7971
      7972      7969      7966      7974      7961      7969      7963      7956
      7983      7986      7981      7985      7986      7983      7992      7988
      7989      7981      7992      7991      7992      7989      7986      7994
      7981      7989      7983      7976      8003      8006      8001      8005
      8006      8003      8012      8008      8009      8001      8012      8011
      8012      8009      8006      8014      8001      8009      8003      7996
      8023      8026      8021      8025      8026      8023      8032      8028
      8029      8021      8032      8031      8032      8029      8026      8034
      8021      8029      8023      8016      8043      8046      8041      8045
      8046      8043      8052      8048      8049      8041      8052      8051
      8052      8049      8046      8054      8041      8049      8043      8036
      8063      8066      8061      8065      8066      8063      8072      8068
      8069      8061      8072      8071      8072      8069      8066      8074
      8061      8069      8063      8056      8083      8086      8081      8085
      8086      8083      8092      8088      8089      8081      8092      8091
      8092      8089      8086      8094      8081      8089      8083      8076
      8103      8106      8101      8105      8106      8103      8112      8108
      8109      8101      8112      8111      8112      8109      8106      8114
      8101      8109      8103      8096      8123      8126      8121      8125
      8126      8123      8132      8128      8129      8121      8132      8131
      8132      8129      8126      8134      8121      8129      8123      8116
      8143      8146      8141      8145      8146      8143      8152      8148
      8149      8141      8152      8151      8152      8149      8146      8154
      8141      8149      8143      8136      8163      8166      8161      8165
      8166      8163      8172      8168      8169      8161      8172      8171
      8172      8169      8166      8174      8161      8169      8163      8156
      8183      8186      8181      8185      8186      8183      8192      8188
      8189      8181      8192      8191      8192      8189      8186      8194
      8181      8189      8183      8176      8203      8206      8201      8205
      8206      8203      8212      8208      8209      8201      8212      8211
      8212      8209      8206      8214      8201      8209      8203      8196
      8223      8226      8221      8225      8226      8223      8232      8228
      8229      8221      8232      8231      8232      8229      8226      8234
      8221      8229      8223      8216      8243      8246      8241      8245
      8246      8243      8252      8248      8249      8241      8252      8251
      8252      8249      8246      8254      8241      8249      8243      8236
      8263      8266      8261      8265      8266      8263      8272      8268
      8269      8261      8272      8271      8272      8269      8266      8274
      8261      8269      8263      8256      8283      8286      8281      8285
      8286      8283      8292      8288      8289      8281      8292      8291
      8292      8289      8286      8294      8281      8289      8283      8276
      8303      8306      8301      8305      8306      8303      8312      8308
      8309      8301      8312      8311      8312      8309      8306      8314
      8301      8309      8303      8296      8323      8326      8321      8325
      8326      8323      8332      8328      8329      8321      8332      8331
      8332      8329      8326      8334      8321      8329      8323      8316
      8343      8346      8341      8345      8346      8343      8352      8348
      8349      8341      8352      8351      8352      8349      8346      8354
      8341      8349      8343      8336      8363      8366      8361      8365
      8366      8363      8372      8368      8369      8361      8372      8371
      8372      8369      8366      8374      8361      8369      8363      8356
      8383      8386      8381      8385      8386      8383      8392      8388
      8389      8381      8392      8391      8392      8389      8386      8394
      8381      8389      8383      8376      8403      8406      8401      8405
      8406      8403      8412      8408      8409      8401      8412      8411
      8412      8409      8406      8414      8401      8409      8403      8396
      8423      8426      8421      8425      8426      8423      8432      8428
      8429      8421      8432      8431      8432      8429      8426      8434
      8421      8429      8423      8416      8443      8446      8441      8445
      8446      8443      8452      8448      8449      8441      8452      8451
      8452      8449      8446      8454      8441      8449      8443      8436
      8463      8466      8461      8465      8466      8463      8472      8468
      8469      8461      8472      8471      8472      8469      8466      8474
      8461      8469      8463      8456      8483      8486      8481      8485
      8486      8483      8492      8488      8489      8481      8492      8491
      8492      8489      8486      8494      8481      8489      8483      8476
      8503      8506      8501      8505      8506      8503      8512      8508
      8509      8501      8512      8511      8512      8509      8506      8514
      8501      8509      8503      8496      8523      8526      8521      8525
      8526      8523      8532      8528      8529      8521      8532      8531
      8532      8529      8526      8534      8521      8529      8523      8516
      8543      8546      8541      8545      8546      8543      8552      8548
      8549      8541      8552      8551      8552      8549      8546      8554
      8541      8549      8543      8536      8563      8566      8561      8565
      8566      8563      8572      8568      8569      8561      8572      8571
      8572      8569      8566      8574      8561      8569      8563      8556
      8583      8586      8581      8585      8586      8583      8592      8588
      8589      8581      8592      8591      8592      8589      8586      8594
      8581      8589      8583      8576      8603      8606      8601      8605
      8606      8603      8612      8608      8609      8601      8612      8611
      8612      8609      8606      8614      8601      8609      8603      8596
      8623      8626      8621      8625      8626      8623      8632      8628
      8629      8621      8632      8631      8632      8629      8626      8634
      8621      8629      8623      8616      8643      8646      8641      8645
      8646      8643      8652      8648      8649      8641      8652      8651
      8652      8649      8646      8654      8641      8649      8643      8636
      8663      8666      8661      8665      8666      8663      8672      8668
      8669      8661      8672      8671      8672      8669      8666      8674
      8661      8669      8663      8656      8683      8686      8681      8685
      8686      8683      8692      8688      8689      8681      8692      8691
      8692      8689      8686      8694      8681      8689      8683      8676
      8703      8706      8701      8705      8706      8703      8712      8708
      8709      8701      8712      8711      8712      8709      8706      8714
      8701      8709      8703      8696      8723      8726      8721      8725
      8726      8723      8732      8728      8729      8721      8732      8731
      8732      8729      8726      8734      8721      8729      8723      8716
      8743      8746      8741      8745      8746      8743      8752      8748
      8749      8741      8752      8751      8752      8749      8746      8754
      8741      8749      8743      8736      8763      8766      8761      8765
      8766      8763      8772      8768      8769      8761      8772      8771
      8772      8769      8766      8774      8761      8769      8763      8756
      8783      8786      8781      8785      8786      8783      8792      8788
      8789      8781      8792      8791      8792      8789      8786      8794
      8781      8789      8783      8776      8803      8806      8801      8805
      8806      8803      8812      8808      8809      8801      8812      8811
      8812      8809      8806      8814      8801      8809      8803      8796
      8823      8826      8821      8825      8826      8823      8832      8828
      8829      8821      8832      8831      8832      8829      8826      8834
      8821      8829      8823      8816      8843      8846      8841      8845
      8846      8843      8852      8848      8849      8841      8852      8851
      8852      8849      8846      8854      8841      8849      8843      8836
      8863      8866      8861      8865      8866      8863      8872      8868
      8869      8861      8872      8871      8872      8869      8866      8874
      8861      8869      8863      8856      8883      8886      8881      8885
      8886      8883      8892      8888      8889      8881      8892      8891
      8892      8889      8886      8894      8881      8889      8883      8876
      8903      8906      8901      8905      8906      8903      8912      8908
      8909      8901      8912      8911      8912      8909      8906      8914
      8901      8909      8903      8896      8923      8926      8921      8925
      8926      8923      8932      8928      8929      8921      8932      8931
      8932      8929      8926      8934      8921      8929      8923      8916
      8943      8946      8941      8945      8946      8943      8952      8948
      8949      8941      8952      8951      8952      8949      8946      8954
      8941      8949      8943      8936      8963      8966      8961      8965
      8966      8963      8972      8968      8969      8961      8972      8971
      8972      8969      8966      8974      8961      8969      8963      8956
      8983      8986      8981      8985      8986      8983      8992      8988
      8989      8981      8992      8991      8992      8989      8986      8994
      8981      8989      8983      8976      9003      9006      9001      9005
      9006      9003      9012      9008      9009      9001      9012      9011
      9012      9009      9006      9014      9001      9009      9003      8996
      9023      9026      9021      9025      9026      9023      9032      9028
      9029      9021      9032      9031      9032      9029      9026      9034
      9021      9029      9023      9016      9043      9046      9041      9045
      9046      9043      9052      9048      9049      9041      9052      9051
      9052      9049      9046      9054      9041      9049      9043      9036
      9063      9066      9061      9065      9066      9063      9072      9068
      9069      9061      9072      9071      9072      9069      9066      9074
      9061      9069      9063      9056      9083      9086      9081      9085
      9086      9083      9092      9088      9089      9081      9092      9091
      9092      9089      9086      9094      9081      9089      9083      9076
      9103      9106      9101      9105      9106      9103      9112      9108
      9109      9101      9112      9111      9112      9109      9106      9114
      9101      9109      9103      9096      9123      9126      9121      9125
      9126      9123      9132      9128      9129      9121      9132      9131
      9132      9129      9126      9134      9121      9129      9123      9116
      9143      9146      9141      9145      9146      9143      9152      9148
      9149      9141      9152      9151      9152      9149      9146      9154
      9141      9149      9143      9136      9163      9166      9161      9165
      9166      9163      9172      9168      9169      9161      9172      9171
      9172      9169      9166      9174      9161      9169      9163      9156
      9183      9186      9181      9185      9186      9183      9192      9188
      9189      9181      9192      9191      9192      9189      9186      9194
      9181      9189      9183      9176      9203      9206      9201      9205
      9206      9203      9212      9208      9209      9201      9212      9211
      9212      9209      9206      9214      9201      9209      9203      9196
      9223      9226      9221      9225      9226      9223      9232      9228
      9229      9221      9232      9231      9232      9229      9226      9234
      9221      9229      9223      9216      9243      9246      9241      9245
      9246      9243      9252      9248      9249      9241      9252      9251
      9252      9249      9246      9254      9241      9249      9243      9236
      9263      9266      9261      9265      9266      9263      9272      9268
      9269      9261      9272      9271      9272      9269      9266      9274
      9261      9269      9263      9256      9283      9286      9281      9285
      9286      9283      9292      9288      9289      9281      9292      9291
      9292      9289      9286      9294      9281      9289      9283      9276
      9303      9306      9301      9305      9306      9303      9312      9308
      9309      9301      9312      9311      9312      9309      9306      9314
      9301      9309      9303      9296      9323      9326      9321      9325
      9326      9323      9332      9328      9329      9321      9332      9331
      9332      9329      9326      9334      9321      9329      9323      9316
      9343      9346      9341      9345      9346      9343      9352      9348
      9349      9341      9352      9351      9352      9349      9346      9354
      9341      9349      9343      9336      9363      9366      9361      9365
      9366      9363      9372      9368      9369      9361      9372      9371
      9372      9369      9366      9374      9361      9369      9363      9356
      9383      9386      9381      9385      9386      9383      9392      9388
      9389      9381      9392      9391      9392      9389      9386      9394
      9381      9389      9383      9376      9403      9406      9401      9405
      9406      9403      9412      9408      9409      9401      9412      9411
      9412      9409      9406      9414      9401      9409      9403      9396
      9423      9426      9421      9425      9426      9423      9432      9428
      9429      9421      9432      9431      9432      9429      9426      9434
      9421      9429      9423      9416      9443      9446      9441      9445
      9446      9443      9452      9448      9449      9441      9452      9451
      9452      9449      9446      9454      9441      9449      9443      9436
      9463      9466      9461      9465      9466      9463      9472      9468
      9469      9461      9472      9471      9472      9469      9466      9474
      9461      9469      9463      9456      9483      9486      9481      9485
      9486      9483      9492      9488      9489      9481      9492      9491
      9492      9489      9486      9494      9481      9489      9483      9476
      9503      9506      9501      9505      9506      9503      9512      9508
      9509      9501      9512      9511      9512      9509      9506      9514
      9501      9509      9503      9496      9523      9526      9521      9525
      9526      9523      9532      9528      9529      9521      9532      9531
      9532      9529      9526      9534      9521      9529      9523      9516
      9543      9546      9541      9545      9546      9543      9552      9548
      9549      9541      9552      9551      9552      9549      9546      9554
      9541      9549      9543      9536      9563      9566      9561      9565
      9566      9563      9572      9568      9569      9561      9572      9571
      9572      9569      9566      9574      9561      9569      9563      9556
      9583      9586      9581      9585      9586      9583      9592      9588
      9589      9581      9592      9591      9592      9589      9586      9594
      9581      9589      9583      9576      9603      9606      9601      9605
      9606      9603      9612      9608      9609      9601      9612      9611
      9612      9609      9606      9614      9601      9609      9603      9596
      9623      9626      9621      9625      9626      9623      9632      9628
      9629      9621      9632      9631      9632      9629      9626      9634
      9621      9629      9623      9616      9643      9646      9641      9645
      9646      9643      9652      9648      9649      9641      9652      9651
      9652      9649      9646      9654      9641      9649      9643      9636
      9663      9666      9661      9665      9666      9663      9672      9668
      9669      9661      9672      9671      9672      9669      9666      9674
      9661      9669      9663      9656      9683      9686      9681      9685
      9686      9683      9692      9688      9689      9681      9692      9691
      9692      9689      9686      9694      9681      9689      9683      9676
      9703      9706      9701      9705      9706      9703      9712      9708
      9709      9701      9712      9711      9712      9709      9706      9714
      9701      9709      9703      9696      9723      9726      9721      9725
      9726      9723      9732      9728      9729      9721      9732      9731
      9732      9729      9726      9734      9721      9729      9723      9716
      9743      9746      9741      9745      9746      9743      9752      9748
      9749      9741      9752      9751      9752      9749      9746      9754
      9741      9749      9743      9736      9763      9766      9761      9765
      9766      9763      9772      9768      9769      9761      9772      9771
      9772      9769      9766      9774      9761      9769      9763      9756
      9783      9786      9781      9785      9786      9783      9792      9788
      9789      9781      9792      9791      9792      9789      9786      9794
      9781      9789      9783      9776      9803      9806      9801      9805
      9806      9803      9812      9808      9809      9801      9812      9811
      9812      9809      9806      9814      9801      9809      9803      9796
      9823      9826      9821      9825      9826      9823      9832      9828
      9829      9821      9832      9831      9832      9829      9826      9834
      9821      9829      9823      9816      9843      9846      9841      9845
      9846      9843      9852      9848      9849      9841      9852      9851
      9852      9849      9846      9854      9841      9849      9843      9836
      9863      9866      9861      9865      9866      9863      9872      9868
      9869      9861      9872      9871      9872      9869      9866      9874
      9861      9869      9863      9856      9883      9886      9881      9885
      9886      9883      9892      9888      9889      9881      9892      9891
      9892      9889      9886      9894      9881      9889      9883      9876
      9903      9906      9901      9905      9906      9903      9912      9908
      9909      9901      9912      9911      9912      9909      9906      9914
      9901      9909      9903      9896      9923      9926      9921      9925
      9926      9923      9932      9928      9929      9921      9932      9931
      9932      9929      9926      9934      9921      9929      9923      9916
      9943      9946      9941      9945      9946      9943      9952      9948
      9949      9941      9952      9951      9952      9949      9946      9954
      9941      9949      9943      9936      9963      9966      9961      9965
      9966      9963      9972      9968      9969      9961      9972      9971
      9972      9969      9966      9974      9961      9969      9963      9956
      9983      9986      9981      9985      9986      9983      9992      9988
      9989      9981      9992      9991      9992      9989      9986      9994
      9981      9989      9983      9976     10003     10006     10001     10005
     10006     10003     10012     10008     10009     10001     10012     10011
     10012     10009     10006     10014     10001     10009     10003      9996
     10023     10026     10021     10025     10026     10023     10032     10028
     10029     10021     10032     10031     10032     10029     10026     10034
     10021     10029     10023     10016     10043     10046     10041     10045
     10046     10043     10052     10048     10049     10041     10052     10051
     10052     10049     10046     10054     10041     10049     10043     10036
     10063     10066     10061     10065     10066     10063     10072     10068
     10069     10061     10072     10071     10072     10069     10066     10074
     10061     10069     10063     10056     10083     10086     10081     10085
     10086     10083     10092     10088     10089     10081     10092     10091
     10092     10089     10086     10094     10081     10089     10083     10076
     10103     10106     10101     10105     10106     10103     10112     10108
     10109     10101     10112     10111     10112     10109     10106     10114
     10101     10109     10103     10096     10123     10126     10121     10125
     10126     10123     10132     10128     10129     10121     10132     10131
     10132     10129     10126     10134     10121     10129     10123     10116
     10143     10146     10141     10145     10146     10143     10152     10148
     10149     10141     10152     10151     10152     10149     10146     10154
     10141     10149     10143     10136     10163     10166     10161     10165
     10166     10163     10172     10168     10169     10161     10172     10171
     10172     10169     10166     10174     10161     10169     10163     10156
     10183     10186     10181     10185     10186     10183     10192     10188
     10189     10181     10192     10191     10192     10189     10186     10194
     10181     10189     10183     10176     10203     10206     10201     10205
     10206     10203     10212     10208     10209     10201     10212     10211
     10212     10209     10206     10214     10201     10209     10203     10196
     10223     10226     10221     10225     10226     10223     10232     10228
     10229     10221     10232     10231     10232     10229     10226     10234
     10221     10229     10223     10216     10243     10246     10241     10245
     10246     10243     10252     10248     10249     10241     10252     10251
     10252     10249     10246     10254     10241     10249     10243     10236
     10263     10266     10261     10265     10266     10263     10272     10268
     10269     10261     10272     10271     10272     10269     10266     10274
     10261     10269     10263     10256     10283     10286     10281     10285
     10286     10283     10292     10288     10289     10281     10292     10291
     10292     10289     10286     10294     10281     10289     10283     10276
     10303     10306     10301     10305     10306     10303     10312     10308
     10309     10301     10312     10311     10312     10309     10306     10314
     10301     10309     10303     10296     10323     10326     10321     10325
     10326     10323     10332     10328     10329     10321     10332     10331
     10332     10329     10326     10334     10321     10329     10323     10316
     10343     10346     10341     10345     10346     10343     10352     10348
     10349     10341     10352     10351     10352     10349     10346     10354
     10341     10349     10343     10336     10363     10366     10361     10365
     10366     10363     10372     10368     10369     10361     10372     10371
     10372     10369     10366     10374     10361     10369     10363     10356
     10383     10386     10381     10385     10386     10383     10392     10388
     10389     10381     10392     10391     10392     10389     10386     10394
     10381     10389     10383     10376     10403     10406     10401     10405
     10406     10403     10412     10408     10409     10401     10412     10411
     10412     10409     10406     10414     10401     10409     10403     10396
     10423     10426     10421     10425     10426     10423     10432     10428
     10429     10421     10432     10431     10432     10429     10426     10434
     10421     10429     10423     10416     10443     10446     10441     10445
     10446     10443     10452     10448     10449     10441     10452     10451
     10452     10449     10446     10454     10441     10449     10443     10436
     10463     10466     10461     10465     10466     10463     10472     10468
     10469     10461     10472     10471     10472     10469     10466     10474
     10461     10469     10463     10456     10483     10486     10481     10485
     10486     10483     10492     10488     10489     10481     10492     10491
     10492     10489     10486     10494     10481     10489     10483     10476
     10503     10506     10501     10505     10506     10503     10512     10508
     10509     10501     10512     10511     10512     10509     10506     10514
     10501     10509     10503     10496     10523     10526     10521     10525
     10526     10523     10532     10528     10529     10521     10532     10531
     10532     10529     10526     10534     10521     10529     10523     10516
     10543     10546     10541     10545     10546     10543     10552     10548
     10549     10541     10552     10551     10552     10549     10546     10554
     10541     10549     10543     10536     10563     10566     10561     10565
     10566     10563     10572     10568     10569     10561     10572     10571
     10572     10569     10566     10574     10561     10569     10563     10556
     10583     10586     10581     10585     10586     10583     10592     10588
     10589     10581     10592     10591     10592     10589     10586     10594
     10581     10589     10583     10576     10603     10606     10601     10605
     10606     10603     10612     10608     10609     10601     10612     10611
     10612     10609     10606     10614     10601     10609     10603     10596
     10623     10626     10621     10625     10626     10623     10632     10628
     10629     10621     10632     10631     10632     10629     10626     10634
     10621     10629     10623     10616     10643     10646     10641     10645
     10646     10643     10652     10648     10649     10641     10652     10651
     10652     10649     10646     10654     10641     10649     10643     10636
     10663     10666     10661     10665     10666     10663     10672     10668
     10669     10661     10672     10671     10672     10669     10666     10674
     10661     10669     10663     10656     10683     10686     10681     10685
     10686     10683     10692     10688     10689     10681     10692     10691
     10692     10689     10686     10694     10681     10689     10683     10676
     10703     10706     10701     10705     10706     10703     10712     10708
     10709     10701     10712     10711     10712     10709     10706     10714
     10701     10709     10703     10696     10723     10726     10721     10725
     10726     10723     10732     10728     10729     10721     10732     10731
     10732     10729     10726     10734     10721     10729     10723     10716
     10743     10746     10741     10745     10746     10743     10752     10748
     10749     10741     10752     10751     10752     10749     10746     10754
     10741     10749     10743     10736     10763     10766     10761     10765
     10766     10763     10772     10768     10769     10761     10772     10771
     10772     10769     10766     10774     10761     10769     10763     10756
     10783     10786     10781     10785     10786     10783     10792     10788
     10789     10781     10792     10791     10792     10789     10786     10794
     10781     10789     10783     10776     10803     10806     10801     10805
     10806     10803     10812     10808     10809     10801     10812     10811
     10812     10809     10806     10814     10801     10809     10803     10796
     10823     10826     10821     10825     10826     10823     10832     10828
     10829     10821     10832     10831     10832     10829     10826     10834
     10821     10829     10823     10816     10843     10846     10841     10845
     10846     10843     10852     10848     10849     10841     10852     10851
     10852     10849     10846     10854     10841     10849     10843     10836
     10863     10866     10861     10865     10866     10863     10872     10868
     10869     10861     10872     10871     10872     10869     10866     10874
     10861     10869     10863     10856     10883     10886     10881     10885
     10886     10883     10892     10888     10889     10881     10892     10891
     10892     10889     10886     10894     10881     10889     10883     10876
     10903     10906     10901     10905     10906     10903     10912     10908
     10909     10901     10912     10911     10912     10909     10906     10914
     10901     10909     10903     10896     10923     10926     10921     10925
     10926     10923     10932     10928     10929     10921     10932     10931
     10932     10929     10926     10934     10921     10929     10923     10916
     10943     10946     10941     10945     10946     10943     10952     10948
     10949     10941     10952     10951     10952     10949     10946     10954
     10941     10949     10943     10936     10963     10966     10961     10965
     10966     10963     10972     10968     10969     10961     10972     10971
     10972     10969     10966     10974     10961     10969     10963     10956
     10983     10986     10981     10985     10986     10983     10992     10988
     10989     10981     10992     10991     10992     10989     10986     10994
     10981     10989     10983     10976     11003     11006     11001     11005
     11006     11003     11012     11008     11009     11001     11012     11011
     11012     11009     11006     11014     11001     11009     11003     10996
     11023     11026     11021     11025     11026     11023     11032     11028
     11029     11021     11032     11031     11032     11029     11026     11034
     11021     11029     11023     11016     11043     11046     11041     11045
     11046     11043     11052     11048     11049     11041     11052     11051
     11052     11049     11046     11054     11041     11049     11043     11036
     11063     11066     11061     11065     11066     11063     11072     11068
     11069     11061     11072     11071     11072     11069     11066     11074
     11061     11069     11063     11056     11083     11086     11081     11085
     11086     11083     11092     11088     11089     11081     11092     11091
     11092     11089     11086     11094     11081     11089     11083     11076
     11103     11106     11101     11105     11106     11103     11112     11108
     11109     11101     11112     11111     11112     11109     11106     11114
     11101     11109     11103     11096     11123     11126     11121     11125
     11126     11123     11132     11128     11129     11121     11132     11131
     11132     11129     11126     11134     11121     11129     11123     11116
     11143     11146     11141     11145     11146     11143     11152     11148
     11149     11141     11152     11151     11152     11149     11146     11154
     11141     11149     11143     11136     11163     11166     11161     11165
     11166     11163     11172     11168     11169     11161     11172     11171
     11172     11169     11166     11174     11161     11169     11163     11156
     11183     11186     11181     11185     11186     11183     11192     11188
     11189     11181     11192     11191     11192     11189     11186     11194
     11181     11189     11183     11176     11203     11206     11201     11205
     11206     11203     11212     11208     11209     11201     11212     11211
     11212     11209     11206     11214     11201     11209     11203     11196
     11223     11226     11221     11225     11226     11223     11232     11228
     11229     11221     11232     11231     11232     11229     11226     11234
     11221     11229     11223     11216     11243     11246     11241     11245
     11246     11243     11252     11248     11249     11241     11252     11251
     11252     11249     11246     11254     11241     11249     11243     11236
     11263     11266     11261     11265     11266     11263     11272     11268
     11269     11261     11272     11271     11272     11269     11266     11274
     11261     11269     11263     11256     11283     11286     11281     11285
     11286     11283     11292     11288     11289     11281     11292     11291
     11292     11289     11286     11294     11281     11289     11283     11276
     11303     11306     11301     11305     11306     11303     11312     11308
     11309     11301     11312     11311     11312     11309     11306     11314
     11301     11309     11303     11296     11323     11326     11321     11325
     11326     11323     11332     11328     11329     11321     11332     11331
     11332     11329     11326     11334     11321     11329     11323     11316
     11343     11346     11341     11345     11346     11343     11352     11348
     11349     11341     11352     11351     11352     11349     11346     11354
     11341     11349     11343     11336     11363     11366     11361     11365
     11366     11363     11372     11368     11369     11361     11372     11371
     11372     11369     11366     11374     11361     11369     11363     11356
     11383     11386     11381     11385     11386     11383     11392     11388
     11389     11381     11392     11391     11392     11389     11386     11394
     11381     11389     11383     11376     11403     11406     11401     11405
     11406     11403     11412     11408     11409     11401     11412     11411
     11412     11409     11406     11414     11401     11409     11403     11396
     11423     11426     11421     11425     11426     11423     11432     11428
     11429     11421     11432     11431     11432     11429     11426     11434
     11421     11429     11423     11416     11443     11446     11441     11445
     11446     11443     11452     11448     11449     11441     11452     11451
     11452     11449     11446     11454     11441     11449     11443     11436
     11463     11466     11461     11465     11466     11463     11472     11468
     11469     11461     11472     11471     11472     11469     11466     11474
     11461     11469     11463     11456     11483     11486     11481     11485
     11486     11483     11492     11488     11489     11481     11492     11491
     11492     11489     11486     11494     11481     11489     11483     11476
     11503     11506     11501     11505     11506     11503     11512     11508
     11509     11501     11512     11511     11512     11509     11506     11514
     11501     11509     11503     11496     11523     11526     11521     11525
     11526     11523     11532     11528     11529     11521     11532     11531
     11532     11529     11526     11534     11521     11529     11523     11516
     11543     11546     11541     11545     11546     11543     11552     11548
     11549     11541     11552     11551     11552     11549     11546     11554
     11541     11549     11543     11536     11563     11566     11561     11565
     11566     11563     11572     11568     11569     11561     11572     11571
     11572     11569     11566     11574     11561     11569     11563     11556
     11583     11586     11581     11585     11586     11583     11592     11588
     11589     11581     11592     11591     11592     11589     11586     11594
     11581     11589     11583     11576     11603     11606     11601     11605
     11606     11603     11612     11608     11609     11601     11612     11611
     11612     11609     11606     11614     11601     11609     11603     11596
     11623     11626     11621     11625     11626     11623     11632     11628
     11629     11621     11632     11631     11632     11629     11626     11634
     11621     11629     11623     11616     11643     11646     11641     11645
     11646     11643     11652     11648     11649     11641     11652     11651
     11652     11649     11646     11654     11641     11649     11643     11636
     11663     11666     11661     11665     11666     11663     11672     11668
     11669     11661     11672     11671     11672     11669     11666     11674
     11661     11669     11663     11656     11683     11686     11681     11685
     11686     11683     11692     11688     11689     11681     11692     11691
     11692     11689     11686     11694     11681     11689     11683     11676
     11703     11706     11701     11705     11706     11703     11712     11708
     11709     11701     11712     11711     11712     11709     11706     11714
     11701     11709     11703     11696     11723     11726     11721     11725
     11726     11723     11732     11728     11729     11721     11732     11731
     11732     11729     11726     11734     11721     11729     11723     11716
     11743     11746     11741     11745     11746     11743     11752     11748
     11749     11741     11752     11751     11752     11749     11746     11754
     11741     11749     11743     11736     11763     11766     11761     11765
     11766     11763     11772     11768     11769     11761     11772     11771
     11772     11769     11766     11774     11761     11769     11763     11756
     11783     11786     11781     11785     11786     11783     11792     11788
     11789     11781     11792     11791     11792     11789     11786     11794
     11781     11789     11783     11776     11803     11806     11801     11805
     11806     11803     11812     11808     11809     11801     11812     11811
     11812     11809     11806     11814     11801     11809     11803     11796
     11823     11826     11821     11825     11826     11823     11832     11828
     11829     11821     11832     11831     11832     11829     11826     11834
     11821     11829     11823     11816     11843     11846     11841     11845
     11846     11843     11852     11848     11849     11841     11852     11851
     11852     11849     11846     11854     11841     11849     11843     11836
     11863     11866     11861     11865     11866     11863     11872     11868
     11869     11861     11872     11871     11872     11869     11866     11874
     11861     11869     11863     11856     11883     11886     11881     11885
     11886     11883     11892     11888     11889     11881     11892     11891
     11892     11889     11886     11894     11881     11889     11883     11876
     11903     11906     11901     11905     11906     11903     11912     11908
     11909     11901     11912     11911     11912     11909     11906     11914
     11901     11909     11903     11896     11923     11926     11921     11925
     11926     11923     11932     11928     11929     11921     11932     11931
     11932     11929     11926     11934     11921     11929     11923     11916
     11943     11946     11941     11945     11946     11943     11952     11948
     11949     11941     11952     11951     11952     11949     11946     11954
     11941     11949     11943     11936     11963     11966     11961     11965
     11966     11963     11972     11968     11969     11961     11972     11971
     11972     11969     11966     11974     11961     11969     11963     11956
     11983     11986     11981     11985     11986     11983     11992     11988
     11989     11981     11992     11991     11992     11989     11986     11994
     11981     11989     11983     11976     12003     12006     12001     12005
     12006     12003     12012     12008     12009     12001     12012     12011
     12012     12009     12006     12014     12001     12009     12003     11996
     12023     12026     12021     12025     12026     12023     12032     12028
     12029     12021     12032     12031     12032     12029     12026     12034
     12021     12029     12023     12016     12043     12046     12041     12045
     12046     12043     12052     12048     12049     12041     12052     12051
     12052     12049     12046     12054     12041     12049     12043     12036
     12063     12066     12061     12065     12066     12063     12072     12068
     12069     12061     12072     12071     12072     12069     12066     12074
     12061     12069     12063     12056     12083     12086     12081     12085
     12086     12083     12092     12088     12089     12081     12092     12091
     12092     12089     12086     12094     12081     12089     12083     12076
     12103     12106     12101     12105     12106     12103     12112     12108
     12109     12101     12112     12111     12112     12109     12106     12114
     12101     12109     12103     12096     12123     12126     12121     12125
     12126     12123     12132     12128     12129     12121     12132     12131
     12132     12129     12126     12134     12121     12129     12123     12116
     12143     12146     12141     12145     12146     12143     12152     12148
     12149     12141     12152     12151     12152     12149     12146     12154
     12141     12149     12143     12136     12163     12166     12161     12165
     12166     12163     12172     12168     12169     12161     12172     12171
     12172     12169     12166     12174     12161     12169     12163     12156
     12183     12186     12181     12185     12186     12183     12192     12188
     12189     12181     12192     12191     12192     12189     12186     12194
     12181     12189     12183     12176     12203     12206     12201     12205
     12206     12203     12212     12208     12209     12201     12212     12211
     12212     12209     12206     12214     12201     12209     12203     12196
     12223     12226     12221     12225     12226     12223     12232     12228
     12229     12221     12232     12231     12232     12229     12226     12234
     12221     12229     12223     12216     12243     12246     12241     12245
     12246     12243     12252     12248     12249     12241     12252     12251
     12252     12249     12246     12254     12241     12249     12243     12236
     12263     12266     12261     12265     12266     12263     12272     12268
     12269     12261     12272     12271     12272     12269     12266     12274
     12261     12269     12263     12256     12283     12286     12281     12285
     12286     12283     12292     12288     12289     12281     12292     12291
     12292     12289     12286     12294     12281     12289     12283     12276
     12303     12306     12301     12305     12306     12303     12312     12308
     12309     12301     12312     12311     12312     12309     12306     12314
     12301     12309     12303     12296     12323     12326     12321     12325
     12326     12323     12332     12328     12329     12321     12332     12331
     12332     12329     12326     12334     12321     12329     12323     12316
     12343     12346     12341     12345     12346     12343     12352     12348
     12349     12341     12352     12351     12352     12349     12346     12354
     12341     12349     12343     12336     12363     12366     12361     12365
     12366     12363     12372     12368     12369     12361     12372     12371
     12372     12369     12366     12374     12361     12369     12363     12356
     12383     12386     12381     12385     12386     12383     12392     12388
     12389     12381     12392     12391     12392     12389     12386     12394
     12381     12389     12383     12376     12403     12406     12401     12405
     12406     12403     12412     12408     12409     12401     12412     12411
     12412     12409     12406     12414     12401     12409     12403     12396
     12423     12426     12421     12425     12426     12423     12432     12428
     12429     12421     12432     12431     12432     12429     12426     12434
     12421     12429     12423     12416     12443     12446     12441     12445
     12446     12443     12452     12448     12449     12441     12452     12451
     12452     12449     12446     12454     12441     12449     12443     12436
     12463     12466     12461     12465     12466     12463     12472     12468
     12469     12461     12472     12471     12472     12469     12466     12474
     12461     12469     12463     12456     12483     12486     12481     12485
     12486     12483     12492     12488     12489     12481     12492     12491
     12492     12489     12486     12494     12481     12489     12483     12476
     12503     12506     12501     12505     12506     12503     12512     12508
     12509     12501     12512     12511     12512     12509     12506     12514
     12501     12509     12503     12496     12523     12526     12521     12525
     12526     12523     12532     12528     12529     12521     12532     12531
     12532     12529     12526     12534     12521     12529     12523     12516
     12543     12546     12541     12545     12546     12543     12552     12548
     12549     12541     12552     12551     12552     12549     12546     12554
     12541     12549     12543     12536     12563     12566     12561     12565
     12566     12563     12572     12568     12569     12561     12572     12571
     12572     12569     12566     12574     12561     12569     12563     12556
     12583     12586     12581     12585     12586     12583     12592     12588
     12589     12581     12592     12591     12592     12589     12586     12594
     12581     12589     12583     12576     12603     12606     12601     12605
     12606     12603     12612     12608     12609     12601     12612     12611
     12612     12609     12606     12614     12601     12609     12603     12596
     12623     12626     12621     12625     12626     12623     12632     12628
     12629     12621     12632     12631     12632     12629     12626     12634
     12621     12629     12623     12616     12643     12646     12641     12645
     12646     12643     12652     12648     12649     12641     12652     12651
     12652     12649     12646     12654     12641     12649     12643     12636
     12663     12666     12661     12665     12666     12663     12672     12668
     12669     12661     12672     12671     12672     12669     12666     12674
     12661     12669     12663     12656     12683     12686     12681     12685
     12686     12683     12692     12688     12689     12681     12692     12691
     12692     12689     12686     12694     12681     12689     12683     12676
     12703     12706     12701     12705     12706     12703     12712     12708
     12709     12701     12712     12711     12712     12709     12706     12714
     12701     12709     12703     12696     12723     12726     12721     12725
     12726     12723     12732     12728     12729     12721     12732     12731
     12732     12729     12726     12734     12721     12729     12723     12716
     12743     12746     12741     12745     12746     12743     12752     12748
     12749     12741     12752     12751     12752     12749     12746     12754
     12741     12749     12743     12736     12763     12766     12761     12765
     12766     12763     12772     12768     12769     12761     12772     12771
     12772     12769     12766     12774     12761     12769     12763     12756
     12783     12786     12781     12785     12786     12783     12792     12788
     12789     12781     12792     12791     12792     12789     12786     12794
     12781     12789     12783     12776     12803     12806     12801     12805
     12806     12803     12812     12808     12809     12801     12812     12811
     12812     12809     12806     12814     12801     12809     12803     12796
     12823     12826     12821     12825     12826     12823     12832     12828
     12829     12821     12832     12831     12832     12829     12826     12834
     12821     12829     12823     12816     12843     12846     12841     12845
     12846     12843     12852     12848     12849     12841     12852     12851
     12852     12849     12846     12854     12841     12849     12843     12836
     12863     12866     12861     12865     12866     12863     12872     12868
     12869     12861     12872     12871     12872     12869     12866     12874
     12861     12869     12863     12856     12883     12886     12881     12885
     12886     12883     12892     12888     12889     12881     12892     12891
     12892     12889     12886     12894     12881     12889     12883     12876
     12903     12906     12901     12905     12906     12903     12912     12908
     12909     12901     12912     12911     12912     12909     12906     12914
     12901     12909     12903     12896     12923     12926     12921     12925
     12926     12923     12932     12928     12929     12921     12932     12931
     12932     12929     12926     12934     12921     12929     12923     12916
     12943     12946     12941     12945     12946     12943     12952     12948
     12949     12941     12952     12951     12952     12949     12946     12954
     12941     12949     12943     12936     12963     12966     12961     12965
     12966     12963     12972     12968     12969     12961     12972     12971
     12972     12969     12966     12974     12961     12969     12963     12956
     12983     12986     12981     12985     12986     12983     12992     12988
     12989     12981     12992     12991     12992     12989     12986     12994
     12981     12989     12983     12976     13003     13006     13001     13005
     13006     13003     13012     13008     13009     13001     13012     13011
     13012     13009     13006     13014     13001     13009     13003     12996
     13023     13026     13021     13025     13026     13023     13032     13028
     13029     13021     13032     13031     13032     13029     13026     13034
     13021     13029     13023     13016     13043     13046     13041     13045
     13046     13043     13052     13048     13049     13041     13052     13051
     13052     13049     13046     13054     13041     13049     13043     13036
     13063     13066     13061     13065     13066     13063     13072     13068
     13069     13061     13072     13071     13072     13069     13066     13074
     13061     13069     13063     13056     13083     13086     13081     13085
     13086     13083     13092     13088     13089     13081     13092     13091
     13092     13089     13086     13094     13081     13089     13083     13076
     13103     13106     13101     13105     13106     13103     13112     13108
     13109     13101     13112     13111     13112     13109     13106     13114
     13101     13109     13103     13096     13123     13126     13121     13125
     13126     13123     13132     13128     13129     13121     13132     13131
     13132     13129     13126     13134     13121     13129     13123     13116
     13143     13146     13141     13145     13146     13143     13152     13148
     13149     13141     13152     13151     13152     13149     13146     13154
     13141     13149     13143     13136     13163     13166     13161     13165
     13166     13163     13172     13168     13169     13161     13172     13171
     13172     13169     13166     13174     13161     13169     13163     13156
     13183     13186     13181     13185     13186     13183     13192     13188
     13189     13181     13192     13191     13192     13189     13186     13194
     13181     13189     13183     13176     13203     13206     13201     13205
     13206     13203     13212     13208     13209     13201     13212     13211
     13212     13209     13206     13214     13201     13209     13203     13196
     13223     13226     13221     13225     13226     13223     13232     13228
     13229     13221     13232     13231     13232     13229     13226     13234
     13221     13229     13223     13216     13243     13246     13241     13245
     13246     13243     13252     13248     13249     13241     13252     13251
     13252     13249     13246     13254     13241     13249     13243     13236
     13263     13266     13261     13265     13266     13263     13272     13268
     13269     13261     13272     13271     13272     13269     13266     13274
     13261     13269     13263     13256     13283     13286     13281     13285
     13286     13283     13292     13288     13289     13281     13292     13291
     13292     13289     13286     13294     13281     13289     13283     13276
     13303     13306     13301     13305     13306     13303     13312     13308
     13309     13301     13312     13311     13312     13309     13306     13314
     13301     13309     13303     13296     13323     13326     13321     13325
     13326     13323     13332     13328     13329     13321     13332     13331
     13332     13329     13326     13334     13321     13329     13323     13316
     13343     13346     13341     13345     13346     13343     13352     13348
     13349     13341     13352     13351     13352     13349     13346     13354
     13341     13349     13343     13336     13363     13366     13361     13365
     13366     13363     13372     13368     13369     13361     13372     13371
     13372     13369     13366     13374     13361     13369     13363     13356

         0 !NDON: donors


         0 !NACC: acceptors


         0 !NNB

         0         0         0         0         0         0         0         0
         0         0         0         0         0         0         0         0
         0         0         0         0         0         0         0         0
         0         0         0         0         0         0         0         0
         0         0         0         0         0         0         0         0
         0         0         0         0         0         0         0         0
         0         0         0         0         0         0         0         0
         0         0         0         0         0         0         0         0
         0         0         0         0         0         0         0         0
         0         0         0         0         0         0         0         0
         0         0         0         0         0         0         0         0
         0         0         0         0         0         0         0         0
         0         0         0         0         0         0         0         0
         0         0         0         0         0         0         0         0
         0         0         0         0         0         0         0         0
         0         0         0         0         0         0         0         0
         0         0         0         0         0         0         0         0
         0         0         0         0         0         0         0         0
         0         0         0         0         0         0         0         0
         0         0         0         0         0         0         0         0
         0         0         0         0         0         0         0         0
         0         0         0         0         0         0         0         0
         0         0         0         0         0         0         0         0
         0         0         0         0         0         0         0         0
         0         0         0         0         0         0         0         0
         0         0         0         0         0         0         0         0
         0         0         0         0         0         0         0         0
         0         0         0         0         0         0         0         0
         0         0         0         0         0         0         0         0
         0         0         0         0         0         0         0         0
         0         0         0         0         0         0         0         0
         0         0         0         0         0         0         0         0
         0         0         0         0         0         0         0         0
         0         0         0         0         0         0         0         0
         0         0         0         0         0         0         0         0
         0         0         0         0         0         0         0         0
         0         0         0         0         0         0         0         0
         0         0         0         0         0         0         0         0
         0         0         0         0         0         0         0         0
         0         0         0         0         0         0         0         0
         0         0         0         0         0         0         0         0
         0         0         0         0         0         0         0         0
         0         0         0         0         0         0         0         0
         0         0         0         0         0         0         0         0
         0         0         0         0         0         0         0         0
         0         0         0         0         0         0         0         0
         0         0         0         0         0         0         0         0
         0         0         0         0         0         0         0         0
         0         0         0         0         0         0         0         0
         0         0         0         0         0         0         0         0
         0         0         0         0         0         0         0         0
         0         0         0         0         0         0         0         0
         0         0         0         0         0         0         0         0
         0         0         0         0         0         0         0         0
         0         0         0         0         0         0         0         0
         0         0         0         0         0         0         0         0
         0         0         0         0         0         0         0         0
         0         0         0         0         0         0         0         0
         0         0         0         0         0         0         0         0
         0         0         0         0         0         0         0         0
         0         0         0         0         0         0         0         0
         0         0         0         0         0         0         0         0
         0         0         0         0         0         0         0         0
         0         0         0         0         0         0         0         0
         0         0         0         0         0         0         0         0
         0         0         0         0         0         0         0         0
         0         0         0         0         0         0         0         0
         0         0         0         0         0         0         0         0
         0         0         0         0         0         0         0         0
         0         0         0         0         0         0         0         0
         0         0         0         0         0         0         0         0
         0         0         0         0         0         0         0         0
         0         0         0         0         0         0         0         0
         0         0         0         0         0         0         0         0
         0         0         0         0         0         0         0         0
         0         0         0         0         0         0         0         0
         0         0         0         0         0         0         0         0
         0         0         0         0         0         0         0         0
         0         0         0         0         0         0         0         0
         0         0         0         0         0         0         0         0
         0         0         0         0         0         0         0         0
         0         0         0         0         0         0         0         0
         0         0         0         0         0         0         0         0
         0         0         0         0         0         0         0         0
         0         0         0         0         0         0         0         0
         0         0         0         0         0         0         0         0
         0         0         0         0         0         0         0         0
         0         0         0         0         0         0         0         0
         0         0         0         0         0         0         0         0
         0         0         0         0         0         0         0         0
         0         0         0         0         0         0         0         0
         0         0         0         0         0         0         0         0
         0         0         0         0         0         0         0         0
         0         0         0         0         0         0         0         0
         0         0         0         0         0         0         0         0
         0         0         0         0         0         0         0         0
         0         0         0         0         0         0         0         0
         0         0         0         0         0         0         0         0
         0         0         0         0         0         0         0         0
         0         0         0         0         0         0         0         0
         0         0         0         0         0         0         0         0
         0         0         0         0         0         0         0         0
         0         0         0         0         0         0         0         0
         0         0         0         0         0         0         0         0
         0         0         0         0         0         0         0         0
         0         0         0         0         0         0         0         0
         0         0         0         0         0         0         0         0
         0         0         0         0         0         0         0         0
         0         0         0         0         0         0         0         0
         0         0         0         0         0         0         0         0
         0         0         0         0         0         0         0         0
         0         0         0         0         0         0         0         0
         0         0         0         0         0         0         0         0
         0         0         0         0         0         0         0         0
         0         0         0         0         0         0         0         0
         0         0         0         0         0         0         0         0
         0         0         0         0         0         0         0         0
         0         0         0         0         0         0         0         0
         0         0         0         0         0         0         0         0
         0         0         0         0         0         0         0         0
         0         0         0         0         0         0         0         0
         0         0         0         0         0         0         0         0
         0         0         0         0         0         0         0         0
         0         0         0         0         0         0         0         0
         0         0         0         0         0         0         0         0
         0         0         0         0         0         0         0         0
         0         0         0         0         0         0         0         0
         0         0         0         0         0         0         0         0
         0         0         0         0         0         0         0         0
         0         0         0         0         0         0         0         0
         0         0         0         0         0         0         0         0
         0         0         0         0         0         0         0         0
         0         0         0         0         0         0         0         0
         0         0         0         0         0         0         0         0
         0         0         0         0         0         0         0         0
         0         0         0         0         0         0         0         0
         0         0         0         0         0         0         0         0
         0         0         0         0         0         0         0         0
         0         0         0         0         0         0         0         0
         0         0         0         0         0         0         0         0
         0         0         0         0         0         0         0         0
         0         0         0         0         0         0         0         0
         0         0         0         0         0         0         0         0
         0         0         0         0         0         0         0         0
         0         0         0         0         0         0         0         0
         0         0         0         0         0         0         0         0
         0         0         0         0         0         0         0         0
         0         0         0         0         0         0         0         0
         0         0         0         0         0         0         0         0
         0         0         0         0         0         0         0         0
         0         0         0         0         0         0         0         0
         0         0         0         0         0         0         0         0
         0         0         0         0         0         0         0         0
         0         0         0         0         0         0         0         0
         0         0         0         0         0         0         0         0
         0         0         0         0         0         0         0         0
         0         0         0         0         0         0         0         0
         0         0         0         0         0         0         0         0
         0         0         0         0         0         0         0         0
         0         0         0         0         0         0         0         0
         0         0         0         0         0         0         0         0
         0         0         0         0         0         0         0         0
         0         0         0         0         0         0         0         0
         0         0         0         0         0         0         0         0
         0         0         0         0         0         0         0         0
         0         0         0         0         0         0         0         0
         0         0         0         0         0         0         0         0
         0         0         0         0         0         0         0         0
         0         0         0         0         0         0         0         0
         0         0         0         0         0         0         0         0
         0         0         0         0         0         0         0         0
         0         0         0         0         0         0         0         0
         0         0         0         0         0         0         0         0
         0         0         0         0         0         0         0         0
         0         0         0         0         0         0         0         0
         0         0         0         0         0         0         0         0
         0         0         0         0         0         0         0         0
         0         0         0         0         0         0         0         0
         0         0         0         0         0         0         0         0
         0         0         0         0         0         0         0         0
         0         0         0         0         0         0         0         0
         0         0         0         0         0         0         0         0
         0         0         0         0         0         0         0         0
         0         0         0         0         0         0         0         0
         0         0         0         0         0         0         0         0
         0         0         0         0         0         0         0         0
         0         0         0         0         0         0         0         0
         0         0         0         0         0         0         0         0
         0         0         0         0         0         0         0         0
         0         0         0         0         0         0         0         0
         0         0         0         0         0         0         0         0
         0         0         0         0         0         0         0         0
         0         0         0         0         0         0         0         0
         0         0         0         0         0         0         0         0
         0         0         0         0         0         0         0         0
         0         0         0         0         0         0         0         0
         0         0         0         0         0         0         0         0
         0         0         0         0         0         0         0         0
         0         0         0         0         0         0         0         0
         0         0         0         0         0         0         0         0
         0         0         0         0         0         0         0         0
         0         0         0         0         0         0         0         0
         0         0         0         0         0         0         0         0
         0         0         0         0         0         0         0         0
         0         0         0         0         0         0         0         0
         0         0         0         0         0         0         0         0
         0         0         0         0         0         0         0         0
         0         0         0         0         0         0         0         0
         0         0         0         0         0         0         0         0
         0         0         0         0         0         0         0         0
         0         0         0         0         0         0         0         0
         0         0         0         0         0         0         0         0
         0         0         0         0         0         0         0         0
         0         0         0         0         0         0         0         0
         0         0         0         0         0         0         0         0
         0         0         0         0         0         0         0         0
         0         0         0         0         0         0         0         0
         0         0         0         0         0         0         0         0
         0         0         0         0         0         0         0         0
         0         0         0         0         0         0         0         0
         0         0         0         0         0         0         0         0
         0         0         0         0         0         0         0         0
         0         0         0         0         0         0         0         0
         0         0         0         0         0         0         0         0
         0         0         0         0         0         0         0         0
         0         0         0         0         0         0         0         0
         0         0         0         0         0         0         0         0
         0         0         0         0         0         0         0         0
         0         0         0         0         0         0         0         0
         0         0         0         0         0         0         0         0
         0         0         0         0         0         0         0         0
         0         0         0         0         0         0         0         0
         0         0         0         0         0         0         0         0
         0         0         0         0         0         0         0         0
         0         0         0         0         0         0         0         0
         0         0         0         0         0         0         0         0
         0         0         0         0         0         0         0         0
         0         0         0         0         0         0         0         0
         0         0         0         0         0         0         0         0
         0         0         0         0         0         0         0         0
         0         0         0         0         0         0         0         0
         0         0         0         0         0         0         0         0
         0         0         0         0         0         0         0         0
         0         0         0         0         0         0         0         0
         0         0         0         0         0         0         0         0
         0         0         0         0         0         0         0         0
         0         0         0         0         0         0         0         0
         0         0         0         0         0         0         0         0
         0         0         0         0         0         0         0         0
         0         0         0         0         0         0         0         0
         0         0         0         0         0         0         0         0
         0         0         0         0         0         0         0         0
         0         0         0         0         0         0         0         0
         0         0         0         0         0         0         0         0
         0         0         0         0         0         0         0         0
         0         0         0         0         0         0         0         0
         0         0         0         0         0         0         0         0
         0         0         0         0         0         0         0         0
         0         0         0         0         0         0         0         0
         0         0         0         0         0         0         0         0
         0         0         0         0         0         0         0         0
         0         0         0         0         0         0         0         0
         0         0         0         0         0         0         0         0
         0         0         0         0         0         0         0         0
         0         0         0         0         0         0         0         0
         0         0         0         0         0         0         0         0
         0         0         0         0         0         0         0         0
         0         0         0         0         0         0         0         0
         0         0         0         0         0         0         0         0
         0         0         0         0         0         0         0         0
         0         0         0         0         0         0         0         0
         0         0         0         0         0         0         0         0
         0         0         0         0         0         0         0         0
         0         0         0         0         0         0         0         0
         0         0         0         0         0         0         0         0
         0         0         0         0         0         0         0         0
         0         0         0         0         0         0         0         0
         0         0         0         0         0         0         0         0
         0         0         0         0         0         0         0         0
         0         0         0         0         0         0         0         0
         0         0         0         0         0         0         0         0
         0         0         0         0         0         0         0         0
         0         0         0         0         0         0         0         0
         0         0         0         0         0         0         0         0
         0         0         0         0         0         0         0         0
         0         0         0         0         0         0         0         0
         0         0         0         0         0         0         0         0
         0         0         0         0         0         0         0         0
         0         0         0         0         0         0         0         0
         0         0         0         0         0         0         0         0
         0         0         0         0         0         0         0         0
         0         0         0         0         0         0         0         0
         0         0         0         0         0         0         0         0
         0         0         0         0         0         0         0         0
         0         0         0         0         0         0         0         0
         0         0         0         0         0         0         0         0
         0         0         0         0         0         0         0         0
         0         0         0         0         0         0         0         0
         0         0         0         0         0         0         0         0
         0         0         0         0         0         0         0         0
         0         0         0         0         0         0         0         0
         0         0         0         0         0         0         0         0
         0         0         0         0         0         0         0         0
         0         0         0         0         0         0         0         0
         0         0         0         0         0         0         0         0
         0         0         0         0         0         0         0         0
         0         0         0         0         0         0         0         0
         0         0         0         0         0         0         0         0
         0         0         0         0         0         0         0         0
         0         0         0         0         0         0         0         0
         0         0         0         0         0         0         0         0
         0         0         0         0         0         0         0         0
         0         0         0         0         0         0         0         0
         0         0         0         0         0         0         0         0
         0         0         0         0         0         0         0         0
         0         0         0         0         0         0         0         0
         0         0         0         0         0         0         0         0
         0         0         0         0         0         0         0         0
         0         0         0         0         0         0         0         0
         0         0         0         0         0         0         0         0
         0         0         0         0         0         0         0         0
         0         0         0         0         0         0         0         0
         0         0         0         0         0         0         0         0
         0         0         0         0         0         0         0         0
         0         0         0         0         0         0         0         0
         0         0         0         0         0         0         0         0
         0         0         0         0         0         0         0         0
         0         0         0         0         0         0         0         0
         0         0         0         0         0         0         0         0
         0         0         0         0         0         0         0         0
         0         0         0         0         0         0         0         0
         0         0         0         0         0         0         0         0
         0         0         0         0         0         0         0         0
         0         0         0         0         0         0         0         0
         0         0         0         0         0         0         0         0
         0         0         0         0         0         0         0         0
         0         0         0         0         0         0         0         0
         0         0         0         0         0         0         0         0
         0         0         0         0         0         0         0         0
         0         0         0         0         0         0         0         0
         0         0         0         0         0         0         0         0
         0         0         0         0         0         0         0         0
         0         0         0         0         0         0         0         0
         0         0         0         0         0         0         0         0
         0         0         0         0         0         0         0         0
         0         0         0         0         0         0         0         0
         0         0         0         0         0         0         0         0
         0         0         0         0         0         0         0         0
         0         0         0         0         0         0         0         0
         0         0         0         0         0         0         0         0
         0         0         0         0         0         0         0         0
         0         0         0         0         0         0         0         0
         0         0         0         0         0         0         0         0
         0         0         0         0         0         0         0         0
         0         0         0         0         0         0         0         0
         0         0         0         0         0         0         0         0
         0         0         0         0         0         0         0         0
         0         0         0         0         0         0         0         0
         0         0         0         0         0         0         0         0
         0         0         0         0         0         0         0         0
         0         0         0         0         0         0         0         0
         0         0         0         0         0         0         0         0
         0         0         0         0         0         0         0         0
         0         0         0         0         0         0         0         0
         0         0         0         0         0         0         0         0
         0         0         0         0         0         0         0         0
         0         0         0         0         0         0         0         0
         0         0         0         0         0         0         0         0
         0         0         0         0         0         0         0         0
         0         0         0         0         0         0         0         0
         0         0         0         0         0         0         0         0
         0         0         0         0         0         0         0         0
         0         0         0         0         0         0         0         0
         0         0         0         0         0         0         0         0
         0         0         0         0         0         0         0         0
         0         0         0         0         0         0         0         0
         0         0         0         0         0         0         0         0
         0         0         0         0         0         0         0         0
         0         0         0         0         0         0         0         0
         0         0         0         0         0         0         0         0
         0         0         0         0         0         0         0         0
         0         0         0         0         0         0         0         0
         0         0         0         0         0         0         0         0
         0         0         0         0         0         0         0         0
         0         0         0         0         0         0         0         0
         0         0         0         0         0         0         0         0
         0         0         0         0         0         0         0         0
         0         0         0         0         0         0         0         0
         0         0         0         0         0         0         0         0
         0         0         0         0         0         0         0         0
         0         0         0         0         0         0         0         0
         0         0         0         0         0         0         0         0
         0         0         0         0         0         0         0         0
         0         0         0         0         0         0         0         0
         0         0         0         0         0         0         0         0
         0         0         0         0         0         0         0         0
         0         0         0         0         0         0         0         0
         0         0         0         0         0         0         0         0
         0         0         0         0         0         0         0         0
         0         0         0         0         0         0         0         0
         0         0         0         0         0         0         0         0
         0         0         0         0         0         0         0         0
         0         0         0         0         0         0         0         0
         0         0         0         0         0         0         0         0
         0         0         0         0         0         0         0         0
         0         0         0         0         0         0         0         0
         0         0         0         0         0         0         0         0
         0         0         0         0         0         0         0         0
         0         0         0         0         0         0         0         0
         0         0         0         0         0         0         0         0
         0         0         0         0         0         0         0         0
         0         0         0         0         0         0         0         0
         0         0         0         0         0         0         0         0
         0         0         0         0         0         0         0         0
         0         0         0         0         0         0         0         0
         0         0         0         0         0         0         0         0
         0         0         0         0         0         0         0         0
         0         0         0         0         0         0         0         0
         0         0         0         0         0         0         0         0
         0         0         0         0         0         0         0         0
         0         0         0         0         0         0         0         0
         0         0         0         0         0         0         0         0
         0         0         0         0         0         0         0         0
         0         0         0         0         0         0         0         0
         0         0         0         0         0         0         0         0
         0         0         0         0         0         0         0         0
         0         0         0         0         0         0         0         0
         0         0         0         0         0         0         0         0
         0         0         0         0         0         0         0         0
         0         0         0         0         0         0         0         0
         0         0         0         0         0         0         0         0
         0         0         0         0         0         0         0         0
         0         0         0         0         0         0         0         0
         0         0         0         0         0         0         0         0
         0         0         0         0         0         0         0         0
         0         0         0         0         0         0         0         0
         0         0         0         0         0         0         0         0
         0         0         0         0         0         0         0         0
         0         0         0         0         0         0         0         0
         0         0         0         0         0         0         0         0
         0         0         0         0         0         0         0         0
         0         0         0         0         0         0         0         0
         0         0         0         0         0         0         0         0
         0         0         0         0         0         0         0         0
         0         0         0         0         0         0         0         0
         0         0         0         0         0         0         0         0
         0         0         0         0         0         0         0         0
         0         0         0         0         0         0         0         0
         0         0         0         0         0         0         0         0
         0         0         0         0         0         0         0         0
         0         0         0         0         0         0         0         0
         0         0         0         0         0         0         0         0
         0         0         0         0         0         0         0         0
         0         0         0         0         0         0         0         0
         0         0         0         0         0         0         0         0
         0         0         0         0         0         0         0         0
         0         0         0         0         0         0         0         0
         0         0         0         0         0         0         0         0
         0         0         0         0         0         0         0         0
         0         0         0         0         0         0         0         0
         0         0         0         0         0         0         0         0
         0         0         0         0         0         0         0         0
         0         0         0         0         0         0         0         0
         0         0         0         0         0         0         0         0
         0         0         0         0         0         0         0         0
         0         0         0         0         0         0         0         0
         0         0         0         0         0         0         0         0
         0         0         0         0         0         0         0         0
         0         0         0         0         0         0         0         0
         0         0         0         0         0         0         0         0
         0         0         0         0         0         0         0         0
         0         0         0         0         0         0         0         0
         0         0         0         0         0         0         0         0
         0         0         0         0         0         0         0         0
         0         0         0         0         0         0         0         0
         0         0         0         0         0         0         0         0
         0         0         0         0         0         0         0         0
         0         0         0         0         0         0         0         0
         0         0         0         0         0         0         0         0
         0         0         0         0         0         0         0         0
         0         0         0         0         0         0         0         0
         0         0         0         0         0         0         0         0
         0         0         0         0         0         0         0         0
         0         0         0         0         0         0         0         0
         0         0         0         0         0         0         0         0
         0         0         0         0         0         0         0         0
         0         0         0         0         0         0         0         0
         0         0         0         0         0         0         0         0
         0         0         0         0         0         0         0         0
         0         0         0         0         0         0         0         0
         0         0         0         0         0         0         0         0
         0         0         0         0         0         0         0         0
         0         0         0         0         0         0         0         0
         0         0         0         0         0         0         0         0
         0         0         0         0         0         0         0         0
         0         0         0         0         0         0         0         0
         0         0         0         0         0         0         0         0
         0         0         0         0         0         0         0         0
         0         0         0         0         0         0         0         0
         0         0         0         0         0         0         0         0
         0         0         0         0         0         0         0         0
         0         0         0         0         0         0         0         0
         0         0         0         0         0         0         0         0
         0         0         0         0         0         0         0         0
         0         0         0         0         0         0         0         0
         0         0         0         0         0         0         0         0
         0         0         0         0         0         0         0         0
         0         0         0         0         0         0         0         0
         0         0         0         0         0         0         0         0
         0         0         0         0         0         0         0         0
         0         0         0         0         0         0         0         0
         0         0         0         0         0         0         0         0
         0         0         0         0         0         0         0         0
         0         0         0         0         0         0         0         0
         0         0         0         0         0         0         0         0
         0         0         0         0         0         0         0         0
         0         0         0         0         0         0         0         0
         0         0         0         0         0         0         0         0
         0         0         0         0         0         0         0         0
         0         0         0         0         0         0         0         0
         0         0         0         0         0         0         0         0
         0         0         0         0         0         0         0         0
         0         0         0         0         0         0         0         0
         0         0         0         0         0         0         0         0
         0         0         0         0         0         0         0         0
         0         0         0         0         0         0         0         0
         0         0         0         0         0         0         0         0
         0         0         0         0         0         0         0         0
         0         0         0         0         0         0         0         0
         0         0         0         0         0         0         0         0
         0         0         0         0         0         0         0         0
         0         0         0         0         0         0         0         0
         0         0         0         0         0         0         0         0
         0         0         0         0         0         0         0         0
         0         0         0         0         0         0         0         0
         0         0         0         0         0         0         0         0
         0         0         0         0         0         0         0         0
         0         0         0         0         0         0         0         0
         0         0         0         0         0         0         0         0
         0         0         0         0         0         0         0         0
         0         0         0         0         0         0         0         0
         0         0         0         0         0         0         0         0
         0         0         0         0         0         0         0         0
         0         0         0         0         0         0         0         0
         0         0         0         0         0         0         0         0
         0         0         0         0         0         0         0         0
         0         0         0         0         0         0         0         0
         0         0         0         0         0         0         0         0
         0         0         0         0         0         0         0         0
         0         0         0         0         0         0         0         0
         0         0         0         0         0         0         0         0
         0         0         0         0         0         0         0         0
         0         0         0         0         0         0         0         0
         0         0         0         0         0         0         0         0
         0         0         0         0         0         0         0         0
         0         0         0         0         0         0         0         0
         0         0         0         0         0         0         0         0
         0         0         0         0         0         0         0         0
         0         0         0         0         0         0         0         0
         0         0         0         0         0         0         0         0
         0         0         0         0         0         0         0         0
         0         0         0         0         0         0         0         0
         0         0         0         0         0         0         0         0
         0         0         0         0         0         0         0         0
         0         0         0         0         0         0         0         0
         0         0         0         0         0         0         0         0
         0         0         0         0         0         0         0         0
         0         0         0         0         0         0         0         0
         0         0         0         0         0         0         0         0
         0         0         0         0         0         0         0         0
         0         0         0         0         0         0         0         0
         0         0         0         0         0         0         0         0
         0         0         0         0         0         0         0         0
         0         0         0         0         0         0         0         0
         0         0         0         0         0         0         0         0
         0         0         0         0         0         0         0         0
         0         0         0         0         0         0         0         0
         0         0         0         0         0         0         0         0
         0         0         0         0         0         0         0         0
         0         0         0         0         0         0         0         0
         0         0         0         0         0         0         0         0
         0         0         0         0         0         0         0         0
         0         0         0         0         0         0         0         0
         0         0         0         0         0         0         0         0
         0         0         0         0         0         0         0         0
         0         0         0         0         0         0         0         0
         0         0         0         0         0         0         0         0
         0         0         0         0         0         0         0         0
         0         0         0         0         0         0         0         0
         0         0         0         0         0         0         0         0
         0         0         0         0         0         0         0         0
         0         0         0         0         0         0         0         0
         0         0         0         0         0         0         0         0
         0         0         0         0         0         0         0         0
         0         0         0         0         0         0         0         0
         0         0         0         0         0         0         0         0
         0         0         0         0         0         0         0         0
         0         0         0         0         0         0         0         0
         0         0         0         0         0         0         0         0
         0         0         0         0         0         0         0         0
         0         0         0         0         0         0         0         0
         0         0         0         0         0         0         0         0
         0         0         0         0         0         0         0         0
         0         0         0         0         0         0         0         0
         0         0         0         0         0         0         0         0
         0         0         0         0         0         0         0         0
         0         0         0         0         0         0         0         0
         0         0         0         0         0         0         0         0
         0         0         0         0         0         0         0         0
         0         0         0         0         0         0         0         0
         0         0         0         0         0         0         0         0
         0         0         0         0         0         0         0         0
         0         0         0         0         0         0         0         0
         0         0         0         0         0         0         0         0
         0         0         0         0         0         0         0         0
         0         0         0         0         0         0         0         0
         0         0         0         0         0         0         0         0
         0         0         0         0         0         0         0         0
         0         0         0         0         0         0         0         0
         0         0         0         0         0         0         0         0
         0         0         0         0         0         0         0         0
         0         0         0         0         0         0         0         0
         0         0         0         0         0         0         0         0
         0         0         0         0         0         0         0         0
         0         0         0         0         0         0         0         0
         0         0         0         0         0         0         0         0
         0         0         0         0         0         0         0         0
         0         0         0         0         0         0         0         0
         0         0         0         0         0         0         0         0
         0         0         0         0         0         0         0         0
         0         0         0         0         0         0         0         0
         0         0         0         0         0         0         0         0
         0         0         0         0         0         0         0         0
         0         0         0         0         0         0         0         0
         0         0         0         0         0         0         0         0
         0         0         0         0         0         0         0         0
         0         0         0         0         0         0         0         0
         0         0         0         0         0         0         0         0
         0         0         0         0         0         0         0         0
         0         0         0         0         0         0         0         0
         0         0         0         0         0         0         0         0
         0         0         0         0         0         0         0         0
         0         0         0         0         0         0         0         0
         0         0         0         0         0         0         0         0
         0         0         0         0         0         0         0         0
         0         0         0         0         0         0         0         0
         0         0         0         0         0         0         0         0
         0         0         0         0         0         0         0         0
         0         0         0         0         0         0         0         0
         0         0         0         0         0         0         0         0
         0         0         0         0         0         0         0         0
         0         0         0         0         0         0         0         0
         0         0         0         0         0         0         0         0
         0         0         0         0         0         0         0         0
         0         0         0         0         0         0         0         0
         0         0         0         0         0         0         0         0
         0         0         0         0         0         0         0         0
         0         0         0         0         0         0         0         0
         0         0         0         0         0         0         0         0
         0         0         0         0         0         0         0         0
         0         0         0         0         0         0         0         0
         0         0         0         0         0         0         0         0
         0         0         0         0         0         0         0         0
         0         0         0         0         0         0         0         0
         0         0         0         0         0         0         0         0
         0         0         0         0         0         0         0         0
         0         0         0         0         0         0         0         0
         0         0         0         0         0         0         0         0
         0         0         0         0         0         0         0         0
         0         0         0         0         0         0         0         0
         0         0         0         0         0         0         0         0
         0         0         0         0         0         0         0         0
         0         0         0         0         0         0         0         0
         0         0         0         0         0         0         0         0
         0         0         0         0         0         0         0         0
         0         0         0         0         0         0         0         0
         0         0         0         0         0         0         0         0
         0         0         0         0         0         0         0         0
         0         0         0         0         0         0         0         0
         0         0         0         0         0         0         0         0
         0         0         0         0         0         0         0         0
         0         0         0         0         0         0         0         0
         0         0         0         0         0         0         0         0
         0         0         0         0         0         0         0         0
         0         0         0         0         0         0         0         0
         0         0         0         0         0         0         0         0
         0         0         0         0         0         0         0         0
         0         0         0         0         0         0         0         0
         0         0         0         0         0         0         0         0
         0         0         0         0         0         0         0         0
         0         0         0         0         0         0         0         0
         0         0         0         0         0         0         0         0
         0         0         0         0         0         0         0         0
         0         0         0         0         0         0         0         0
         0         0         0         0         0         0         0         0
         0         0         0         0         0         0         0         0
         0         0         0         0         0         0         0         0
         0         0         0         0         0         0         0         0
         0         0         0         0         0         0         0         0
         0         0         0         0         0         0         0         0
         0         0         0         0         0         0         0         0
         0         0         0         0         0         0         0         0
         0         0         0         0         0         0         0         0
         0         0         0         0         0         0         0         0
         0         0         0         0         0         0         0         0
         0         0         0         0         0         0         0         0
         0         0         0         0         0         0         0         0
         0         0         0         0         0         0         0         0
         0         0         0         0         0         0         0         0
         0         0         0         0         0         0         0         0
         0         0         0         0         0         0         0         0
         0         0         0         0         0         0         0         0
         0         0         0         0         0         0         0         0
         0         0         0         0         0         0         0         0
         0         0         0         0         0         0         0         0
         0         0         0         0         0         0         0         0
         0         0         0         0         0         0         0         0
         0         0         0         0         0         0         0         0
         0         0         0         0         0         0         0         0
         0         0         0         0         0         0         0         0
         0         0         0         0         0         0         0         0
         0         0         0         0         0         0         0         0
         0         0         0         0         0         0         0         0
         0         0         0         0         0         0         0         0
         0         0         0         0         0         0         0         0
         0         0         0         0         0         0         0         0
         0         0         0         0         0         0         0         0
         0         0         0         0         0         0         0         0
         0         0         0         0         0         0         0         0
         0         0         0         0         0         0         0         0
         0         0         0         0         0         0         0         0
         0         0         0         0         0         0         0         0
         0         0         0         0         0         0         0         0
         0         0         0         0         0         0         0         0
         0         0         0         0         0         0         0         0
         0         0         0         0         0         0         0         0
         0         0         0         0         0         0         0         0
         0         0         0         0         0         0         0         0
         0         0         0         0         0         0         0         0
         0         0         0         0         0         0         0         0
         0         0         0         0         0         0         0         0
         0         0         0         0         0         0         0         0
         0         0         0         0         0         0         0         0
         0         0         0         0         0         0         0         0
         0         0         0         0         0         0         0         0
         0         0         0         0         0         0         0         0
         0         0         0         0         0         0         0         0
         0         0         0         0         0         0         0         0
         0         0         0         0         0         0         0         0
         0         0         0         0         0         0         0         0
         0         0         0         0         0         0         0         0
         0         0         0         0         0         0         0         0
         0         0         0         0         0         0         0         0
         0         0         0         0         0         0         0         0
         0         0         0         0         0         0         0         0
         0         0         0         0         0         0         0         0
         0         0         0         0         0         0         0         0
         0         0         0         0         0         0         0         0
         0         0         0         0         0         0         0         0
         0         0         0         0         0         0         0         0
         0         0         0         0         0         0         0         0
         0         0         0         0         0         0         0         0
         0         0         0         0         0         0         0         0
         0         0         0         0         0         0         0         0
         0         0         0         0         0         0         0         0
         0         0         0         0         0         0         0         0
         0         0         0         0         0         0         0         0
         0         0         0         0         0         0         0         0
         0         0         0         0         0         0         0         0
         0         0         0         0         0         0         0         0
         0         0         0         0         0         0         0         0
         0         0         0         0         0         0         0         0
         0         0         0         0         0         0         0         0
         0         0         0         0         0         0         0         0
         0         0         0         0         0         0         0         0
         0         0         0         0         0         0         0         0
         0         0         0         0         0         0         0         0
         0         0         0         0         0         0         0         0
         0         0         0         0         0         0         0         0
         0         0         0         0         0         0         0         0
         0         0         0         0         0         0         0         0
         0         0         0         0         0         0         0         0
         0         0         0         0         0         0         0         0
         0         0         0         0         0         0         0         0
         0         0         0         0         0         0         0         0
         0         0         0         0         0         0         0         0
         0         0         0         0         0         0         0         0
         0         0         0         0         0         0         0         0
         0         0         0         0         0         0         0         0
         0         0         0         0         0         0         0         0
         0         0         0         0         0         0         0         0
         0         0         0         0         0         0         0         0
         0         0         0         0         0         0         0         0
         0         0         0         0         0         0         0         0
         0         0         0         0         0         0         0         0
         0         0         0         0         0         0         0         0
         0         0         0         0         0         0         0         0
         0         0         0         0         0         0         0         0
         0         0         0         0         0         0         0         0
         0         0         0         0         0         0         0         0
         0         0         0         0         0         0         0         0
         0         0         0         0         0         0         0         0
         0         0         0         0         0         0         0         0
         0         0         0         0         0         0         0         0
         0         0         0         0         0         0         0         0
         0         0         0         0         0         0         0         0
         0         0         0         0         0         0         0         0
         0         0         0         0         0         0         0         0
         0         0         0         0         0         0         0         0
         0         0         0         0         0         0         0         0
         0         0         0         0         0         0         0         0
         0         0         0         0         0         0         0         0
         0         0         0         0         0         0         0         0
         0         0         0         0         0         0         0         0
         0         0         0         0         0         0         0         0
         0         0         0         0         0         0         0         0
         0         0         0         0         0         0         0         0
         0         0         0         0         0         0         0         0
         0         0         0         0         0         0         0         0
         0         0         0         0         0         0         0         0
         0         0         0         0         0         0         0         0
         0         0         0         0         0         0         0         0
         0         0         0         0         0         0         0         0
         0         0         0         0         0         0         0         0
         0         0         0         0         0         0         0         0
         0         0         0         0         0         0         0         0
         0         0         0         0         0         0         0         0
         0         0         0         0         0         0         0         0
         0         0         0         0         0         0         0         0
         0         0         0         0         0         0         0         0
         0         0         0         0         0         0         0         0
         0         0         0         0         0         0         0         0
         0         0         0         0         0         0         0         0
         0         0         0         0         0         0         0         0
         0         0         0         0         0         0         0         0
         0         0         0         0         0         0         0         0
         0         0         0         0         0         0         0         0
         0         0         0         0         0         0         0         0
         0         0         0         0         0         0         0         0
         0         0         0         0         0         0         0         0
         0         0         0         0         0         0         0         0
         0         0         0         0         0         0         0         0
         0         0         0         0         0         0         0         0
         0         0         0         0         0         0         0         0
         0         0         0         0         0         0         0         0
         0         0         0         0         0         0         0         0
         0         0         0         0         0         0         0         0
         0         0         0         0         0         0         0         0
         0         0         0         0         0         0         0         0
         0         0         0         0         0         0         0         0
         0         0         0         0         0         0         0         0
         0         0         0         0         0         0         0         0
         0         0         0         0         0         0         0         0
         0         0         0         0         0         0         0         0
         0         0         0         0         0         0         0         0
         0         0         0         0         0         0         0         0
         0         0         0         0         0         0         0         0
         0         0         0         0         0         0         0         0
         0         0         0         0         0         0         0         0
         0         0         0         0         0         0         0         0
         0         0         0         0         0         0         0         0
         0         0         0         0         0         0         0         0
         0         0         0         0         0         0         0         0
         0         0         0         0         0         0         0         0
         0         0         0         0         0         0         0         0
         0         0         0         0         0         0         0         0
         0         0         0         0         0         0         0         0
         0         0         0         0         0         0         0         0
         0         0         0         0         0         0         0         0
         0         0         0         0         0         0         0         0
         0         0         0         0         0         0         0         0
         0         0         0         0         0         0         0         0
         0         0         0         0         0         0         0         0
         0         0         0         0         0         0         0         0
         0         0         0         0         0         0         0         0
         0         0         0         0         0         0         0         0
         0         0         0         0         0         0         0         0
         0         0         0         0         0         0         0         0
         0         0         0         0         0         0         0         0
         0         0         0         0         0         0         0         0
         0         0         0         0         0         0         0         0
         0         0         0         0         0         0         0         0
         0         0         0         0         0         0         0         0
         0         0         0         0         0         0         0         0
         0         0         0         0         0         0         0         0
         0         0         0         0         0         0         0         0
         0         0         0         0         0         0         0         0
         0         0         0         0         0         0         0         0
         0         0         0         0         0         0         0         0
         0         0         0         0         0         0         0         0
         0         0         0         0         0         0         0         0
         0         0         0         0         0         0         0         0
         0         0         0         0         0         0         0         0
         0         0         0         0         0         0         0         0
         0         0         0         0         0         0         0         0
         0         0         0         0         0         0         0         0
         0         0         0         0         0         0         0         0
         0         0         0         0         0         0         0         0
         0         0         0         0         0         0         0         0
         0         0         0         0         0         0         0         0
         0         0         0         0         0         0         0         0
         0         0         0         0         0         0         0         0
         0         0         0         0         0         0         0         0
         0         0         0         0         0         0         0         0
         0         0         0         0         0         0         0         0
         0         0         0         0         0         0         0         0
         0         0         0         0         0         0         0         0
         0         0         0         0         0         0         0         0
         0         0         0         0         0         0         0         0
         0         0         0         0         0         0         0         0
         0         0         0         0         0         0         0         0
         0         0         0         0         0         0         0         0
         0         0         0         0         0         0         0         0
         0         0         0         0         0         0         0         0
         0         0         0         0         0         0         0         0
         0         0         0         0         0         0         0         0
         0         0         0         0         0         0         0         0
         0         0         0         0         0         0         0         0
         0         0         0         0         0         0         0         0
         0         0         0         0         0         0         0         0
         0         0         0         0         0         0         0         0
         0         0         0         0         0         0         0         0
         0         0         0         0         0         0         0         0
         0         0         0         0         0         0         0         0
         0         0         0         0         0         0         0         0
         0         0         0         0         0         0         0         0
         0         0         0         0         0         0         0         0
         0         0         0         0         0         0         0         0
         0         0         0         0         0         0         0         0
         0         0         0         0         0         0         0         0
         0         0         0         0         0         0         0         0
         0         0         0         0         0         0         0         0
         0         0         0         0         0         0         0         0
         0         0         0         0         0         0         0         0
         0         0         0         0         0         0         0         0
         0         0         0         0         0         0         0         0
         0         0         0         0         0         0         0         0
         0         0         0         0         0         0         0         0
         0         0         0         0         0         0         0         0
         0         0         0         0         0         0         0         0
         0         0         0         0         0         0         0         0
         0         0         0         0         0         0         0         0
         0         0         0         0         0         0         0         0
         0         0         0         0         0         0         0         0
         0         0         0         0         0         0         0         0
         0         0         0         0         0         0         0         0
         0         0         0         0         0         0         0         0
         0         0         0         0         0         0         0         0
         0         0         0         0         0         0         0         0
         0         0         0         0         0         0         0         0
         0         0         0         0         0         0         0         0
         0         0         0         0         0         0         0         0
         0         0         0         0         0         0         0         0
         0         0         0         0         0         0         0         0
         0         0         0         0         0         0         0         0
         0         0         0         0         0         0         0         0
         0         0         0         0         0         0         0         0
         0         0         0         0         0         0         0         0
         0         0         0         0         0         0         0         0
         0         0         0         0         0         0         0         0
         0         0         0         0         0         0         0         0
         0         0         0         0         0         0         0         0
         0         0         0         0         0         0         0         0
         0         0         0         0         0         0         0         0
         0         0         0         0         0         0         0         0
         0         0         0         0         0         0         0         0
         0         0         0         0         0         0         0         0
         0         0         0         0         0         0         0         0
         0         0         0         0         0         0         0         0
         0         0         0         0         0         0         0         0
         0         0         0         0         0         0         0         0
         0         0         0         0         0         0         0         0
         0         0         0         0         0         0         0         0
         0         0         0         0         0         0         0         0
         0         0         0         0         0         0         0         0
         0         0         0         0         0         0         0         0
         0         0         0         0         0         0         0         0
         0         0         0         0         0         0         0         0
         0         0         0         0         0         0         0         0
         0         0         0         0         0         0         0         0
         0         0         0         0         0         0         0         0
         0         0         0         0         0         0         0         0
         0         0         0         0         0         0         0         0
         0         0         0         0         0         0         0         0
         0         0         0         0         0         0         0         0
         0         0         0         0         0         0         0         0
         0         0         0         0         0         0         0         0
         0         0         0         0         0         0         0         0
         0         0         0         0         0         0         0         0
         0         0         0         0         0         0         0         0
         0         0         0         0         0         0         0         0
         0         0         0         0         0         0         0         0
         0         0         0         0         0         0         0         0
         0         0         0         0         0         0         0         0
         0         0         0         0         0         0         0         0
         0         0         0         0         0         0         0         0
         0         0         0         0         0         0         0         0
         0         0         0         0         0         0         0         0
         0         0         0         0         0         0         0         0
         0         0         0         0         0         0         0         0
         0         0         0         0         0         0         0         0
         0         0         0         0         0         0         0         0
         0         0         0         0         0         0         0         0
         0         0         0         0         0         0         0         0
         0         0         0         0         0         0         0         0
         0         0         0         0         0         0         0         0
         0         0         0         0         0         0         0         0
         0         0         0         0         0         0         0         0
         0         0         0         0         0         0         0         0
         0         0         0         0         0         0         0         0
         0         0         0         0         0         0         0         0
         0         0         0         0         0         0         0         0
         0         0         0         0         0         0         0         0
         0         0         0         0         0         0         0         0
         0         0         0         0         0         0         0         0
         0         0         0         0         0         0         0         0
         0         0         0         0         0         0         0         0
         0         0         0         0         0         0         0         0
         0         0         0         0         0         0         0         0
         0         0         0         0         0         0         0         0
         0         0         0         0         0         0         0         0
         0         0         0         0         0         0         0         0
         0         0         0         0         0         0         0         0
         0         0         0         0         0         0         0         0
         0         0         0         0         0         0         0         0
         0         0         0         0         0         0         0         0
         0         0         0         0         0         0         0         0
         0         0         0         0         0         0         0         0
         0         0         0         0         0         0         0         0
         0         0         0         0         0         0         0         0
         0         0         0         0         0         0         0         0
         0         0         0         0         0         0         0         0
         0         0         0         0         0         0         0         0
         0         0         0         0         0         0         0         0
         0         0         0         0         0         0         0         0
         0         0         0         0         0         0         0         0
         0         0         0         0         0         0         0         0
         0         0         0         0         0         0         0         0
         0         0         0         0         0         0         0         0
         0         0         0         0         0         0         0         0
         0         0         0         0         0         0         0         0
         0         0         0         0         0         0         0         0
         0         0         0         0         0         0         0         0
         0         0         0         0         0         0         0         0
         0         0         0         0         0         0         0         0
         0         0         0         0         0         0         0         0
         0         0         0         0         0         0         0         0
         0         0         0         0         0         0         0         0
         0         0         0         0         0         0         0         0
         0         0         0         0         0         0         0         0
         0         0         0         0         0         0         0         0
         0         0         0         0         0         0         0         0
         0         0         0         0         0         0         0         0
         0         0         0         0         0         0         0         0
         0         0         0         0         0         0         0         0
         0         0         0         0         0         0         0         0
         0         0         0         0         0         0         0         0
         0         0         0         0         0         0         0         0
         0         0         0         0         0         0         0         0
         0         0         0         0         0         0         0         0
         0         0         0         0         0         0         0         0
         0         0         0         0         0         0         0         0
         0         0         0         0         0         0         0         0
         0         0         0         0         0         0         0         0
         0         0         0         0         0         0         0         0
         0         0         0         0         0         0         0         0
         0         0         0         0         0         0         0         0
         0         0         0         0         0         0         0         0
         0         0         0         0         0         0         0         0
         0         0         0         0         0         0         0         0
         0         0         0         0         0         0         0         0
         0         0         0         0         0         0         0         0
         0         0         0         0         0         0         0         0
         0         0         0         0         0         0         0         0
         0         0         0         0         0         0         0         0
         0         0         0         0         0         0         0         0
         0         0         0         0         0         0         0         0
         0         0         0         0         0         0         0         0
         0         0         0         0         0         0         0         0
         0         0         0         0         0         0         0         0
         0         0         0         0         0         0         0         0
         0         0         0         0         0         0         0         0
         0         0         0         0         0         0         0         0
         0         0         0         0         0         0         0         0
         0         0         0         0         0         0         0         0
         0         0         0         0         0         0         0         0
         0         0         0         0         0         0         0         0
         0         0         0         0         0         0         0         0
         0         0         0         0         0         0         0         0
         0         0         0         0         0         0         0         0
         0         0         0         0         0         0         0         0
         0         0         0         0         0         0         0         0
         0         0         0         0         0         0         0         0
         0         0         0         0         0         0         0         0
         0         0         0         0         0         0         0         0
         0         0         0         0         0         0         0         0
         0         0         0         0         0         0         0         0
         0         0         0         0         0         0         0         0
         0         0         0         0         0         0         0         0
         0         0         0         0         0         0         0         0
         0         0         0         0         0         0         0         0
         0         0         0         0         0         0         0         0
         0         0         0         0         0         0         0         0
         0         0         0         0         0         0         0         0
         0         0         0         0         0         0         0         0
         0         0         0         0         0         0         0         0
         0         0         0         0         0         0         0         0
         0         0         0         0         0         0         0         0
         0         0         0         0         0         0         0         0
         0         0         0         0         0         0         0         0
         0         0         0         0         0         0         0         0
         0         0         0         0         0         0         0         0
         0         0         0         0         0         0         0         0
         0         0         0         0         0         0         0         0
         0         0         0         0         0         0         0         0
         0         0         0         0         0         0         0         0
         0         0         0         0         0         0         0         0
         0         0         0         0         0         0         0         0
         0         0         0         0         0         0         0         0
         0         0         0         0         0         0         0         0
         0         0         0         0         0         0         0         0
         0         0         0         0         0         0         0         0
         0         0         0         0         0         0         0         0
         0         0         0         0         0         0         0         0
         0         0         0         0         0         0         0         0
         0         0         0         0         0         0         0         0
         0         0         0         0         0         0         0         0
         0         0         0         0         0         0         0         0
         0         0         0         0         0         0         0         0
         0         0         0         0         0         0         0         0
         0         0         0         0         0         0         0         0
         0         0         0         0         0         0         0         0
         0         0         0         0         0         0         0         0
         0         0         0         0         0         0         0         0
         0         0         0         0         0         0         0         0
         0         0         0         0         0         0         0         0
         0         0         0         0         0         0         0         0
         0         0         0         0         0         0         0         0
         0         0         0         0         0         0         0         0
         0         0         0         0         0         0         0         0
         0         0         0         0         0         0         0         0
         0         0         0         0         0         0         0         0
         0         0         0         0         0         0         0         0
         0         0         0         0         0         0         0         0
         0         0         0         0         0         0         0         0
         0         0         0         0         0         0         0         0
         0         0         0         0         0         0         0         0
         0         0         0         0         0         0         0         0
         0         0         0         0         0         0         0         0
         0         0         0         0         0         0         0         0
         0         0         0         0         0         0         0         0
         0         0         0         0         0         0         0         0
         0         0         0         0         0         0         0         0
         0         0         0         0         0         0         0         0
         0         0         0         0         0         0         0         0
         0         0         0         0         0         0         0         0
         0         0         0         0         0         0         0         0
         0         0         0         0         0         0         0         0
         0         0         0         0         0         0         0         0
         0         0         0         0         0         0         0         0
         0         0         0         0         0         0         0         0
         0         0         0         0         0         0         0         0
         0         0         0         0         0         0         0         0
         0         0         0         0         0         0         0         0
         0         0         0         0         0         0         0         0
         0         0         0         0         0         0         0         0
         0         0         0         0         0         0         0         0
         0         0         0         0         0         0         0         0
         0         0         0         0         0         0         0         0
         0         0         0         0         0         0         0         0
         0         0         0         0         0         0         0         0
         0         0         0         0         0         0         0         0
         0         0         0         0         0         0         0         0
         0         0         0         0         0         0         0         0
         0         0         0         0         0         0         0         0
         0         0         0         0         0         0         0         0
         0         0         0         0         0         0         0         0
         0         0         0         0         0         0         0         0
         0         0         0         0         0         0         0         0
         0         0         0         0         0         0         0         0
         0         0         0         0         0         0         0         0
         0         0         0         0         0         0         0         0
         0         0         0         0         0         0         0         0
         0         0         0         0         0         0         0         0
         0         0         0         0         0         0         0         0
         0         0         0         0         0         0         0         0
         0         0         0         0         0         0         0         0
         0         0         0         0         0         0         0         0
         0         0         0         0         0         0         0         0
         0         0         0         0         0         0         0         0
         0         0         0         0         0         0         0         0
         0         0         0         0         0         0         0         0
         0         0         0         0         0         0         0         0
         0         0         0         0         0         0         0         0
         0         0         0         0         0         0         0         0
         0         0         0         0         0         0         0         0
         0         0         0         0         0         0         0         0
         0         0         0         0         0         0         0         0
         0         0         0         0         0         0         0         0
         0         0         0         0         0         0         0         0
         0         0         0         0         0         0         0         0
         0         0         0         0         0         0         0         0
         0         0         0         0         0         0         0         0
         0         0         0         0         0         0         0         0
         0         0         0         0         0         0         0         0
         0         0         0         0         0         0         0         0
         0         0         0         0         0         0         0         0
         0         0         0         0         0         0         0         0
         0         0         0         0         0         0         0         0
         0         0         0         0         0         0         0         0
         0         0         0         0         0         0         0         0
         0         0         0         0         0         0         0         0
         0         0         0         0         0         0         0         0
         0         0         0         0         0         0         0         0
         0         0         0         0         0         0         0         0
         0         0         0         0         0         0         0         0
         0         0         0         0         0         0         0         0
         0         0         0         0         0         0         0         0
         0         0         0         0         0         0         0         0
         0         0         0         0         0         0         0         0
         0         0         0         0         0         0         0         0
         0         0         0         0         0         0         0         0
         0         0         0         0         0         0         0         0
         0         0         0         0         0         0         0         0
         0         0         0         0         0         0         0         0
         0         0         0         0         0         0         0         0
         0         0         0         0         0         0         0         0
         0         0         0         0         0         0         0         0
         0         0         0         0         0         0         0         0
         0         0         0         0         0         0         0         0
         0         0         0         0         0         0         0         0
         0         0         0         0         0         0         0         0
         0         0         0         0         0         0         0         0
         0         0         0         0         0         0         0         0
         0         0         0         0         0         0         0         0
         0         0         0         0         0         0         0         0
         0         0         0         0         0         0         0         0
         0         0         0         0         0         0         0         0
         0         0         0         0         0         0         0         0
         0         0         0         0         0         0         0         0
         0         0         0         0         0         0         0         0
         0         0         0         0         0         0         0         0
         0         0         0         0         0         0         0         0
         0         0         0         0         0         0         0         0
         0         0         0         0         0         0         0         0
         0         0         0         0         0         0         0         0
         0         0         0         0         0         0         0         0
         0         0         0         0         0         0         0         0
         0         0         0         0         0         0         0         0
         0         0         0         0         0         0         0         0
         0         0         0         0         0         0         0         0
         0         0         0         0         0         0         0         0
         0         0         0         0         0         0         0         0
         0         0         0         0         0         0         0         0
         0         0         0         0         0         0         0         0
         0         0         0         0         0         0         0         0
         0         0         0         0         0         0         0         0
         0         0         0         0         0         0         0         0
         0         0         0         0         0         0         0         0
         0         0         0         0         0         0         0         0
         0         0         0         0         0         0         0         0
         0         0         0         0         0         0         0         0
         0         0         0         0         0         0         0         0
         0         0         0         0         0         0         0         0
         0         0         0         0         0         0         0         0
         0         0         0         0         0         0         0         0
         0         0         0         0         0         0         0         0
         0         0         0         0         0         0         0         0
         0         0         0         0         0         0         0         0
         0         0         0         0         0         0         0         0
         0         0         0         0         0         0         0         0
         0         0         0         0         0         0         0         0
         0         0         0         0         0         0         0         0
         0         0         0         0         0         0         0         0
         0         0         0         0         0         0         0         0
         0         0         0         0         0         0         0         0
         0         0         0         0         0         0         0         0
         0         0         0         0         0         0         0         0
         0         0         0         0         0         0         0         0
         0         0         0         0         0         0         0         0
         0         0         0         0         0         0         0         0
         0         0         0         0         0         0         0         0
         0         0         0         0         0         0         0         0
         0         0         0         0         0         0         0         0
         0         0         0         0         0         0         0         0
         0         0         0         0         0         0         0         0
         0         0         0         0         0         0         0         0
         0         0         0         0         0         0         0         0
         0         0         0         0         0         0         0         0
         0         0         0         0         0         0         0         0
         0         0         0         0         0         0         0         0
         0         0         0         0         0         0         0         0
         0         0         0         0         0         0         0         0
         0         0         0         0         0         0         0         0
         0         0         0         0         0         0         0         0
         0         0         0         0         0         0         0         0
         0         0         0         0         0         0         0         0
         0         0         0         0         0         0         0         0
         0         0         0         0         0         0         0         0
         0         0         0         0         0         0         0         0
         0         0         0         0         0         0         0         0
         0         0         0         0         0         0         0         0
         0         0         0         0         0         0         0         0
         0         0         0         0         0         0         0         0
         0         0         0         0         0         0         0         0
         0         0         0         0         0         0         0         0
         0         0         0         0         0         0         0         0
         0         0         0         0         0         0         0         0
         0         0         0         0         0         0         0         0
         0         0         0         0         0         0         0         0
         0         0         0         0         0         0         0         0
         0         0         0         0         0         0         0         0
         0         0         0         0         0         0         0         0
         0         0         0         0         0         0         0         0
         0         0         0         0         0         0         0         0
         0         0         0         0         0         0         0         0
         0         0         0         0         0         0         0         0
         0         0         0         0         0         0         0         0
         0         0         0         0         0         0         0         0
         0         0         0         0         0         0         0         0
         0         0         0         0         0         0         0         0
         0         0         0         0         0         0         0         0
         0         0         0         0         0         0         0         0
         0         0         0         0         0         0         0         0
         0         0         0         0         0         0         0         0
         0         0         0         0         0         0         0         0
         0         0         0         0         0         0         0         0
         0         0         0         0         0         0         0         0
         0         0         0         0         0         0         0         0
         0         0         0         0         0         0         0         0
         0         0         0         0         0         0         0         0
         0         0         0         0         0         0         0         0
         0         0         0         0         0         0         0         0
         0         0         0         0         0         0         0         0
         0         0         0         0         0         0         0         0
         0         0         0         0         0         0         0         0
         0         0         0         0         0         0         0         0
         0         0         0         0         0         0         0         0
         0         0         0         0         0         0         0         0
         0         0         0         0         0         0         0         0
         0         0         0         0         0         0         0         0
         0         0         0         0         0         0         0         0
         0         0         0         0         0         0         0         0
         0         0         0         0         0         0         0         0
         0         0         0         0         0         0         0         0
         0         0         0         0         0         0         0         0
         0         0         0         0         0         0         0         0
         0         0         0         0         0         0         0         0
         0         0         0         0         0         0         0         0
         0         0         0         0         0         0         0         0
         0         0         0         0         0         0         0         0
         0         0         0         0         0         0         0         0
         0         0         0         0         0         0         0         0
         0         0         0         0         0         0         0         0
         0         0         0         0         0         0         0         0
         0         0         0         0         0         0         0         0
         0         0         0         0         0         0         0         0
         0         0         0         0         0         0         0         0
         0         0         0         0         0         0         0         0
         0         0         0         0         0         0         0         0
         0         0         0         0         0         0         0         0
         0         0         0         0         0         0         0         0
         0         0         0         0         0         0         0         0
         0         0         0         0         0         0         0         0
         0         0         0         0         0         0         0         0
         0         0         0         0         0         0         0         0
         0         0         0         0         0         0         0         0
         0         0         0         0         0         0         0         0
         0         0         0         0         0         0         0         0
         0         0         0         0         0         0         0         0
         0         0         0         0         0         0         0         0
         0         0         0         0         0         0         0         0
         0         0         0         0         0         0         0         0
         0         0         0         0         0         0         0         0
         0         0         0         0         0         0         0         0
         0         0         0         0         0         0         0         0
         0         0         0         0         0         0         0         0
         0         0         0         0         0         0         0         0
         0         0         0         0         0         0         0         0
         0         0         0         0         0         0         0         0
         0         0         0         0         0         0         0         0
         0         0         0         0         0         0         0         0
         0         0         0         0         0         0         0         0
         0         0         0         0         0         0         0         0
         0         0         0         0         0         0         0         0
         0         0         0         0         0         0         0         0
         0         0         0         0         0         0         0         0
         0         0         0         0         0         0         0         0
         0         0         0         0         0         0         0         0
         0         0         0         0         0         0         0         0
         0         0         0         0         0         0         0         0
         0         0         0         0         0         0         0         0
         0         0         0         0         0         0         0         0
         0         0         0         0         0         0         0         0
         0         0         0         0         0         0         0         0
         0         0         0         0         0         0         0         0
         0         0         0         0         0         0         0         0
         0         0         0         0         0         0         0         0
         0         0         0         0         0         0         0         0
         0         0         0         0         0         0         0         0
         0         0         0         0         0         0         0         0
         0         0         0         0         0         0         0         0
         0         0         0         0         0         0         0         0
         0         0         0         0         0         0         0         0
         0         0         0         0         0         0         0         0
         0         0         0         0         0         0         0         0
         0         0         0         0         0         0         0         0
         0         0         0         0         0         0         0         0
         0         0         0         0         0         0         0         0
         0         0         0         0         0         0         0         0
         0         0         0         0         0         0         0         0
         0         0         0         0         0         0         0         0
         0         0         0         0         0         0         0         0
         0         0         0         0         0         0         0         0
         0         0         0         0         0         0         0         0
         0         0         0         0         0         0         0         0
         0         0         0         0         0         0         0         0
         0         0         0         0         0         0         0         0
         0         0         0         0         0         0         0         0
         0         0         0         0         0         0         0         0
         0         0         0         0         0         0         0         0
         0         0         0         0         0         0         0         0
         0         0         0         0         0         0         0         0
         0         0         0         0         0         0         0         0
         0         0         0         0         0         0         0         0
         0         0         0         0         0         0         0         0
         0         0         0         0         0         0         0         0
         0         0         0         0         0         0         0         0
         0         0         0         0         0         0         0         0
         0         0         0         0         0         0         0         0
         0         0         0         0         0         0         0         0
         0         0         0         0         0         0         0         0
         0         0         0         0         0         0         0         0
         0         0         0         0         0         0         0         0
         0         0         0         0         0         0         0         0
         0         0         0         0         0         0         0         0
         0         0         0         0         0         0         0         0
         0         0         0         0         0         0         0         0
         0         0         0         0         0         0         0         0
         0         0         0         0         0         0         0         0
         0         0         0         0         0         0         0         0
         0         0         0         0         0         0         0         0
         0         0         0         0         0         0         0         0
         0         0         0         0         0         0         0         0
         0         0         0         0         0         0         0         0
         0         0         0         0         0         0         0         0
         0         0         0         0         0         0         0         0
         0         0         0         0         0         0         0         0
         0         0         0         0         0         0         0         0
         0         0         0         0         0         0         0         0
         0         0         0         0         0         0         0         0
         0         0         0         0         0         0         0         0
         0         0         0         0         0         0         0         0
         0         0         0         0         0         0         0         0
         0         0         0         0         0         0         0         0
         0         0         0         0         0         0         0         0
         0         0         0         0         0         0         0         0
         0         0         0         0         0         0         0         0
         0         0         0         0         0         0         0         0
         0         0         0         0         0         0         0         0
         0         0         0         0         0         0         0         0
         0         0         0         0         0         0         0         0
         0         0         0         0         0         0         0         0
         0         0         0         0         0         0         0         0
         0         0         0         0         0         0         0         0
         0         0         0         0         0         0         0         0
         0         0         0         0         0         0         0         0
         0         0         0         0         0         0         0         0
         0         0         0         0         0         0         0         0
         0         0         0         0         0         0         0         0
         0         0         0         0         0         0         0         0
         0         0         0         0         0         0         0         0
         0         0         0         0         0         0         0         0
         0         0         0         0         0         0         0         0
         0         0         0         0         0         0         0         0
         0         0         0         0         0         0         0         0
         0         0         0         0         0         0         0         0
         0         0         0         0         0         0         0         0
         0         0         0         0         0         0         0         0
         0         0         0         0         0         0         0         0
         0         0         0         0         0         0         0         0
         0         0         0         0         0         0         0         0
         0         0         0         0         0         0         0         0
         0         0         0         0         0         0         0         0
         0         0         0         0         0         0         0         0
         0         0         0         0         0         0         0         0
         0         0         0         0         0         0         0         0
         0         0         0         0         0         0         0         0
         0         0         0         0         0         0         0         0
         0         0         0         0         0         0         0         0
         0         0         0         0         0         0         0         0
         0         0         0         0         0         0         0         0
         0         0         0         0         0         0         0         0
         0         0         0         0         0         0         0         0
         0         0         0         0         0         0         0         0
         0         0         0         0         0         0         0         0
         0         0         0         0         0         0         0         0
         0         0         0         0         0         0         0         0
         0         0         0         0         0         0         0         0
         0         0         0         0         0         0         0         0
         0         0         0         0         0         0         0         0
         0         0         0         0         0         0         0         0
         0         0         0         0         0         0         0         0
         0         0         0         0         0         0         0         0
         0         0         0         0         0         0         0         0
         0         0         0         0         0         0         0         0
         0         0         0         0         0         0         0         0
         0         0         0         0         0         0         0         0
         0         0         0         0         0         0         0         0
         0         0         0         0         0         0         0         0
         0         0         0         0         0         0         0         0
         0         0         0         0         0         0         0         0
         0         0         0         0         0         0         0         0
         0         0         0         0         0         0         0         0
         0         0         0         0         0         0         0         0
         0         0         0         0         0         0         0         0
         0         0         0         0         0         0         0         0
         0         0         0         0         0         0         0         0
         0         0         0         0         0         0         0         0
         0         0         0         0         0         0         0         0
         0         0         0         0         0         0         0         0
         0         0         0         0         0         0         0         0
         0         0         0         0         0         0         0         0
         0         0         0         0         0         0         0         0
         0         0         0         0         0         0         0         0
         0         0         0         0         0         0         0         0
         0         0         0         0         0         0         0         0
         0         0         0         0         0         0         0         0
         0         0         0         0         0         0         0         0
         0         0         0         0         0         0         0         0
         0         0         0         0         0         0         0         0
         0         0         0         0         0         0         0         0
         0         0         0         0         0         0         0         0
         0         0         0         0         0         0         0         0
         0         0         0         0         0         0         0         0
         0         0         0         0         0         0         0         0
         0         0         0         0         0         0         0         0
         0         0         0         0         0         0         0         0
         0         0         0         0         0         0         0         0
         0         0         0         0         0         0         0         0
         0         0         0         0         0         0         0         0
         0         0         0         0         0         0         0         0
         0         0         0         0         0         0         0         0
         0         0         0         0         0         0         0         0
         0         0         0         0         0         0         0         0
         0         0         0         0         0         0         0         0
         0         0         0         0         0         0         0         0
         0         0         0         0         0         0         0         0
         0         0         0         0         0         0         0         0
         0         0         0         0         0         0         0         0
         0         0         0         0         0         0         0         0
         0         0         0         0         0         0         0         0
         0         0         0         0         0         0         0         0
         0         0         0         0         0         0         0         0
         0         0         0         0         0         0         0         0
         0         0         0         0         0         0         0         0
         0         0         0         0         0         0         0         0
         0         0         0         0         0         0         0         0
         0         0         0         0         0         0         0         0
         0         0         0         0         0         0         0         0
         0         0         0         0         0         0         0         0
         0         0         0         0         0         0         0         0
         0         0         0         0         0         0         0         0
         0         0         0         0         0         0         0         0
         0         0         0         0         0         0         0         0
         0         0         0         0         0         0         0         0
         0         0         0         0         0         0         0         0
         0         0         0         0         0         0         0         0
         0         0         0         0         0         0         0         0
         0         0         0         0         0         0         0         0
         0         0         0         0         0         0         0         0
         0         0         0         0         0         0         0         0
         0         0         0         0         0         0         0         0
         0         0         0         0         0         0         0         0
         0         0         0         0         0         0         0         0
         0         0         0         0         0         0         0         0
         0         0         0         0         0         0         0         0
         0         0         0         0         0         0         0         0
         0         0         0         0         0         0         0         0
         0         0         0         0         0         0         0         0
         0         0         0         0         0         0         0         0
         0         0         0         0         0         0         0         0
         0         0         0         0         0         0         0         0
         0         0         0         0         0         0         0         0
         0         0         0         0         0         0         0         0
         0         0         0         0         0         0         0         0
         0         0         0         0         0         0         0         0
         0         0         0         0         0         0         0         0
         0         0         0         0         0         0         0         0
         0         0         0         0         0         0         0         0
         0         0         0         0         0         0         0         0
         0         0         0         0         0         0         0         0
         0         0         0         0         0         0         0         0
         0         0         0         0         0         0         0         0
         0         0         0         0         0         0         0         0
         0         0         0         0         0         0         0         0
         0         0         0         0         0         0         0         0
         0         0         0         0         0         0         0         0
         0         0         0         0         0         0         0         0
         0         0         0         0         0         0         0         0
         0         0         0         0         0         0         0         0
         0         0         0         0         0         0         0         0
         0         0         0         0         0         0         0         0
         0         0         0         0         0         0         0         0
         0         0         0         0         0         0         0         0
         0         0         0         0         0         0         0         0
         0         0         0         0         0         0         0         0
         0         0         0         0         0         0         0         0
         0         0         0         0         0         0         0         0
         0         0         0         0         0         0         0         0
         0         0         0         0         0         0         0         0
         0         0         0         0         0         0         0         0
         0         0         0         0         0         0         0         0
         0         0         0         0         0         0         0         0
         0         0         0         0         0         0         0         0
         0         0         0         0         0         0         0         0
         0         0         0         0         0         0         0         0
         0         0         0         0         0         0         0         0
         0         0         0         0         0         0         0         0
         0         0         0         0         0         0         0         0
         0         0         0         0         0         0         0         0
         0         0         0         0         0         0         0         0
         0         0         0         0         0         0         0         0
         0         0         0         0         0         0         0         0
         0         0         0         0         0         0         0         0
         0         0         0         0         0         0         0         0
         0         0         0         0         0         0         0         0
         0         0         0         0         0         0         0         0
         0         0         0         0         0         0         0         0
         0         0         0         0         0         0         0         0
         0         0         0         0         0         0         0         0
         0         0         0         0         0         0         0         0
         0         0         0         0         0         0         0         0
         0         0         0         0         0         0         0         0
         0         0         0         0         0         0         0         0
         0         0         0         0         0         0         0         0
         0         0         0         0         0         0         0         0
         0         0         0         0         0         0         0         0
         0         0         0         0         0         0         0         0
         0         0         0         0         0         0         0         0
         0         0         0         0         0         0         0         0
         0         0         0         0         0         0         0         0
         0         0         0         0         0         0         0         0
         0         0         0         0         0         0         0         0
         0         0         0         0         0         0         0         0
         0         0         0         0         0         0         0         0
         0         0         0         0         0         0         0         0
         0         0         0         0         0         0         0         0
         0         0         0         0         0         0         0         0
         0         0         0         0         0         0         0         0
         0         0         0         0         0         0         0         0
         0         0         0         0         0         0         0         0
         0         0         0         0         0         0         0         0
         0         0         0         0         0         0         0         0
         0         0         0         0         0         0         0         0
         0         0         0         0         0         0         0         0
         0         0         0         0         0         0         0         0
         0         0         0         0         0         0         0         0
         0         0         0         0         0         0         0         0
         0         0         0         0         0         0         0         0
         0         0         0         0         0         0         0         0
         0         0         0         0         0         0         0         0
         0         0         0         0         0         0         0         0
         0         0         0         0         0         0         0         0
         0         0         0         0         0         0         0         0
         0         0         0         0         0         0         0         0
         0         0         0         0         0         0         0         0
         0         0         0         0         0         0         0         0
         0         0         0         0         0         0         0         0
         0         0         0         0         0         0         0         0
         0         0         0         0         0         0         0         0
         0         0         0         0         0         0         0         0
         0         0         0         0         0         0         0         0
         0         0         0         0         0         0         0         0
         0         0         0         0         0         0         0         0
         0         0         0         0         0         0         0         0
         0         0         0         0         0         0         0         0
         0         0         0         0         0         0         0         0
         0         0         0         0         0         0         0         0
         0         0         0         0         0         0         0         0
         0         0         0         0         0         0         0         0
         0         0         0         0         0         0         0         0
         0         0         0         0         0         0         0         0
         0         0         0         0         0         0         0         0
         0         0         0         0         0         0         0         0
         0         0         0         0         0         0         0         0
         0         0         0         0         0         0         0         0
         0         0         0         0         0         0         0         0
         0         0         0         0         0         0         0         0
         0         0         0         0         0         0         0         0
         0         0         0         0         0         0         0         0
         0         0         0         0         0         0         0         0
         0         0         0         0         0         0         0         0
         0         0         0         0         0         0         0         0
         0         0         0         0         0         0         0         0
         0         0         0         0         0         0         0         0
         0         0         0         0         0         0         0         0
         0         0         0         0         0         0         0         0
         0         0         0         0         0         0         0         0
         0         0         0         0         0         0         0         0
         0         0         0         0         0         0         0         0
         0         0         0         0         0         0         0         0
         0         0         0         0         0         0         0         0
         0         0         0         0         0         0         0         0
         0         0         0         0         0         0         0         0
         0         0         0         0         0         0         0         0
         0         0         0         0         0         0         0         0
         0         0         0         0         0         0         0         0
         0         0         0         0         0         0         0         0
         0         0         0         0         0         0         0         0
         0         0         0         0         0         0         0         0
         0         0         0         0         0         0         0         0
         0         0         0         0         0         0         0         0
         0         0         0         0         0         0         0         0
         0         0         0         0         0         0         0         0
         0         0         0         0         0         0         0         0
         0         0         0         0         0         0         0         0
         0         0         0         0         0         0         0         0
         0         0         0         0         0         0         0         0
         0         0         0         0         0         0         0         0
         0         0         0         0         0         0         0         0
         0         0         0         0         0         0         0         0
         0         0         0         0         0         0         0         0
         0         0         0         0         0         0         0         0
         0         0         0         0         0         0         0         0
         0         0         0         0         0         0         0         0
         0         0         0         0         0         0         0         0
         0         0         0         0         0         0         0         0
         0         0         0         0         0         0         0         0
         0         0         0         0         0         0         0         0
         0         0         0         0         0         0         0         0
         0         0         0         0         0         0         0         0
         0         0         0         0         0         0         0         0
         0         0         0         0         0         0         0         0
         0         0         0         0         0         0         0         0
         0         0         0         0         0         0         0         0
         0         0         0         0         0         0         0         0
         0         0         0         0         0         0         0         0
         0         0         0         0         0         0         0         0
         0         0         0         0         0         0         0         0
         0         0         0         0         0         0         0         0
         0         0         0         0         0         0         0         0
         0         0         0         0         0         0         0         0
         0         0         0         0         0         0         0         0
         0         0         0         0         0         0         0         0
         0         0         0         0         0         0         0         0
         0         0         0         0         0         0         0         0
         0         0         0         0         0         0         0         0
         0         0         0         0         0         0         0         0
         0         0         0         0         0         0         0         0
         0         0         0         0         0         0         0         0
         0         0         0         0         0         0         0         0
         0         0         0         0         0         0         0         0
         0         0         0         0         0         0         0         0
         0         0         0         0         0         0         0         0
         0         0         0         0         0         0         0         0
         0         0         0         0         0         0         0         0
         0         0         0         0         0         0         0         0
         0         0         0         0         0         0         0         0
         0         0         0         0         0         0         0         0
         0         0         0         0         0         0         0         0
         0         0         0         0         0         0         0         0
         0         0         0         0         0         0         0         0
         0         0         0         0         0         0         0         0
         0         0         0         0         0         0         0         0
         0         0         0         0         0         0         0         0
         0         0         0         0         0         0         0         0
         0         0         0         0         0         0         0         0
         0         0         0         0         0         0         0         0
         0         0         0         0         0         0         0         0
         0         0         0         0         0         0         0         0
         0         0         0         0         0         0         0         0
         0         0         0         0         0         0         0         0
         0         0         0         0         0         0         0         0
         0         0         0         0         0         0         0         0
         0         0         0         0         0         0         0         0
         0         0         0         0         0         0         0         0
         0         0         0         0         0         0         0         0
         0         0         0         0         0         0         0         0
         0         0         0         0         0         0         0         0
         0         0         0         0         0         0         0         0
         0         0         0         0         0         0         0         0
         0         0         0         0         0         0         0         0
         0         0         0         0         0         0         0         0
         0         0         0         0         0         0         0         0
         0         0         0         0         0         0         0         0
         0         0         0         0         0         0         0         0
         0         0         0         0         0         0         0         0
         0         0         0         0         0         0         0         0
         0         0         0         0         0         0         0         0
         0         0         0         0         0         0         0         0
         0         0         0         0         0         0         0         0
         0         0         0         0         0         0         0         0
         0         0         0         0         0         0         0         0
         0         0         0         0         0         0         0         0
         0         0         0         0         0         0         0         0
         0         0         0         0         0         0         0         0
         0         0         0         0         0         0         0         0
         0         0         0         0         0         0         0         0
         0         0         0         0         0         0         0         0
         0         0         0         0         0         0         0         0
         0         0         0         0         0         0         0         0
         0         0         0         0         0         0         0         0
         0         0         0         0         0         0         0         0
         0         0         0         0         0         0         0         0
         0         0         0         0         0         0         0         0
         0         0         0         0         0         0         0         0
         0         0         0         0         0         0         0         0
         0         0         0         0         0         0         0         0
         0         0         0         0         0         0         0         0
         0         0         0         0         0         0         0         0
         0         0         0         0         0         0         0         0
         0         0         0         0         0         0         0         0
         0         0         0         0         0         0         0         0
         0         0         0         0         0         0         0         0
         0         0         0         0         0         0         0         0
         0         0         0         0         0         0         0         0
         0         0         0         0         0         0         0         0
         0         0         0         0         0         0         0         0
         0         0         0         0         0         0         0         0
         0         0         0         0         0         0         0         0
         0         0         0         0         0         0         0         0
         0         0         0         0         0         0         0         0
         0         0         0         0         0         0         0         0
         0         0         0         0         0         0         0         0
         0         0         0         0         0         0         0         0
         0         0         0         0         0         0         0         0
         0         0         0         0         0         0         0         0
         0         0         0         0         0         0         0         0
         0         0         0         0         0         0         0         0
         0         0         0         0         0         0         0         0
         0         0         0         0         0         0         0         0
         0         0         0         0         0         0         0         0
         0         0         0         0         0         0         0         0
         0         0         0         0         0         0         0         0
         0         0         0         0         0         0         0         0
         0         0         0         0         0         0         0         0
         0         0         0         0         0         0         0         0
         0         0         0         0         0         0         0         0
         0         0         0         0         0         0         0         0
         0         0         0         0         0         0         0         0
         0         0         0         0         0         0         0         0
         0         0         0         0         0         0         0         0
         0         0         0         0         0         0         0         0
         0         0         0         0         0         0         0         0
         0         0         0         0         0         0         0         0
         0         0         0         0         0         0         0         0
         0         0         0         0         0         0         0         0
         0         0         0         0         0         0         0         0
         0         0         0         0         0         0         0         0
         0         0         0         0         0         0         0         0
         0         0         0         0         0         0         0         0
         0         0         0         0         0         0         0         0
         0         0         0         0         0         0         0         0
         0         0         0         0         0         0         0         0
         0         0         0         0         0         0         0         0
         0         0         0         0         0         0         0         0
         0         0         0         0         0         0         0         0
         0         0         0         0         0         0         0         0
         0         0         0         0         0         0         0         0
         0         0         0         0         0         0         0         0
         0         0         0         0         0         0         0         0
         0         0         0         0         0         0         0         0
         0         0         0         0         0         0         0         0
         0         0         0         0         0         0         0         0
         0         0         0         0         0         0         0         0
         0         0         0         0         0         0         0         0
         0         0         0         0         0         0         0         0
         0         0         0         0         0         0         0         0
         0         0         0         0         0         0         0         0
         0         0         0         0         0         0         0         0
         0         0         0         0         0         0         0         0
         0         0         0         0         0         0         0         0
         0         0         0         0         0         0         0         0
         0         0         0         0         0         0         0         0
         0         0         0         0         0         0         0         0
         0         0         0         0         0         0         0         0
         0         0         0         0         0         0         0         0
         0         0         0         0         0         0         0         0
         0         0         0         0         0         0         0         0
         0         0         0         0         0         0         0         0
         0         0         0         0         0         0         0         0
         0         0         0         0         0         0         0         0
         0         0         0         0         0         0         0         0
         0         0         0         0         0         0         0         0
         0         0         0         0         0         0         0         0
         0         0         0         0         0         0         0         0
         0         0         0         0         0         0         0         0
         0         0         0         0         0         0         0         0
         0         0         0         0         0         0         0         0
         0         0         0         0         0         0         0         0
         0         0         0         0         0         0         0         0
         0         0         0         0         0         0         0         0
         0         0         0         0         0         0         0         0
         0         0         0         0         0         0         0         0
         0         0         0         0         0         0         0         0
         0         0         0         0         0         0         0         0
         0         0         0         0         0         0         0         0
         0         0         0         0         0         0         0         0
         0         0         0         0         0         0         0         0
         0         0         0         0         0         0         0         0
         0         0         0         0         0         0         0         0
         0         0         0         0         0         0         0         0
         0         0         0         0         0         0         0         0
         0         0         0         0         0         0         0         0
         0         0         0         0         0         0         0         0
         0         0         0         0         0         0         0         0
         0         0         0         0         0         0         0         0
         0         0         0         0         0         0         0         0
         0         0         0         0         0         0         0         0
         0         0         0         0         0         0         0         0
         0         0         0         0         0         0         0         0
         0         0         0         0         0         0         0         0
         0         0         0         0         0         0         0         0
         0         0         0         0         0         0         0         0
         0         0         0         0         0         0         0         0
         0         0         0         0         0         0         0         0
         0         0         0         0         0         0         0         0
         0         0         0         0         0         0         0         0
         0         0         0         0         0         0         0         0
         0         0         0         0         0         0         0         0
         0         0         0         0         0         0         0         0
         0         0         0         0         0         0         0         0
         0         0         0         0         0         0         0         0
         0         0         0         0         0         0         0         0
         0         0         0         0         0         0         0         0
         0         0         0         0         0         0         0         0
         0         0         0         0         0         0         0         0
         0         0         0         0         0         0         0         0
         0         0         0         0         0         0         0         0
         0         0         0         0         0         0         0         0
         0         0         0         0         0         0         0         0
         0         0         0         0         0         0         0         0
         0         0         0         0         0         0         0         0
         0         0         0         0         0         0         0         0
         0         0         0         0         0         0         0         0
         0         0         0         0         0         0         0         0
         0         0         0         0         0         0         0         0
         0         0         0         0         0         0         0         0
         0         0         0         0         0         0         0         0
         0         0         0         0         0         0         0         0
         0         0         0         0         0         0         0         0
         0         0         0         0         0         0         0         0
         0         0         0         0         0         0         0         0
         0         0         0         0         0         0         0         0
         0         0         0         0         0         0         0         0
         0         0         0         0         0         0         0         0
         0         0         0         0         0         0         0         0
         0         0         0         0         0         0         0         0
         0         0         0         0         0         0         0         0
         0         0         0         0         0         0         0         0
         0         0         0         0         0         0         0         0
         0         0         0         0         0         0         0         0
         0         0         0         0         0         0         0         0
         0         0         0         0         0         0         0         0
         0         0         0         0         0         0         0         0
         0         0         0         0         0         0         0         0
         0         0         0         0         0         0         0         0
         0         0         0         0         0         0         0         0
         0         0         0         0         0         0         0         0
         0         0         0         0         0         0         0         0
         0         0         0         0         0         0         0         0
         0         0         0         0         0         0         0         0
         0         0         0         0         0         0         0         0
         0         0         0         0         0         0         0         0
         0         0         0         0         0         0         0         0
         0         0         0         0         0         0         0         0
         0         0         0         0         0         0         0         0
         0         0         0         0         0         0         0         0
         0         0         0         0         0         0         0         0
         0         0         0         0         0         0         0         0
         0         0         0         0         0         0         0         0
         0         0         0         0         0         0         0         0
         0         0         0         0         0         0         0         0
         0         0         0         0         0         0         0         0
         0         0         0         0         0         0         0         0
         0         0         0         0         0         0         0         0
         0         0         0         0         0         0         0         0
         0         0         0         0         0         0         0         0
         0         0         0         0         0         0         0         0
         0         0         0         0         0         0         0         0
         0         0         0         0         0         0         0         0
         0         0         0         0         0         0         0         0
         0         0         0         0         0         0         0         0
         0         0         0         0         0         0         0         0
         0         0         0         0         0         0         0         0
         0         0         0         0         0         0         0         0
         0         0         0         0         0         0         0         0
         0         0         0         0         0         0         0         0
         0         0         0         0         0         0         0         0
         0         0         0         0         0         0         0         0
         0         0         0         0         0         0         0         0
         0         0         0         0         0         0         0         0
         0         0         0         0         0         0         0         0
         0         0         0         0         0         0         0         0
         0         0         0         0         0         0         0         0
         0         0         0         0         0         0         0         0
         0         0         0         0         0         0         0         0
         0         0         0         0         0         0         0         0
         0         0         0         0         0         0         0         0
         0         0         0         0         0         0         0         0
         0         0         0         0         0         0         0         0
         0         0         0         0         0         0         0         0
         0         0         0         0         0         0         0         0
         0         0         0         0         0         0         0         0
         0         0         0         0         0         0         0         0
         0         0         0         0         0         0         0         0
         0         0         0         0         0         0         0         0
         0         0         0         0         0         0         0         0
         0         0         0         0         0         0         0         0
         0         0         0         0         0         0         0         0
         0         0         0         0         0         0         0         0
         0         0         0         0         0         0         0         0
         0         0         0         0         0         0         0         0
         0         0         0         0         0         0         0         0
         0         0         0         0         0         0         0         0
         0         0         0         0         0         0         0         0
         0         0         0         0         0         0         0         0
         0         0         0         0         0         0         0         0
         0         0         0         0         0         0         0         0
         0         0         0         0         0         0         0         0
         0         0         0         0         0         0         0         0
         0         0         0         0         0         0         0         0
         0         0         0         0         0         0         0         0
         0         0         0         0         0         0         0         0
         0         0         0         0         0         0         0         0
         0         0         0         0         0         0         0         0
         0         0         0         0         0         0         0         0
         0         0         0         0         0         0         0         0
         0         0         0         0         0         0         0         0
         0         0         0         0         0         0         0         0
         0         0         0         0         0         0         0         0
         0         0         0         0         0         0         0         0
         0         0         0         0         0         0         0         0
         0         0         0         0         0         0         0         0
         0         0         0         0         0         0         0         0
         0         0         0         0         0         0         0         0
         0         0         0         0         0         0         0         0
         0         0         0         0         0         0         0         0
         0         0         0         0         0         0         0         0
         0         0         0         0         0         0         0         0
         0         0         0         0         0         0         0         0
         0         0         0         0         0         0         0         0
         0         0         0         0         0         0         0         0
         0         0         0         0         0         0         0         0
         0         0         0         0         0         0         0         0
         0         0         0         0         0         0         0         0
         0         0         0         0         0         0         0         0
         0         0         0         0         0         0         0         0
         0         0         0         0         0         0         0         0
         0         0         0         0         0         0         0         0
         0         0         0         0         0         0         0         0
         0         0         0         0         0         0         0         0
         0         0         0         0         0         0         0         0
         0         0         0         0         0         0         0         0
         0         0         0         0         0         0         0         0
         0         0         0         0         0         0         0         0
         0         0         0         0         0         0         0         0
         0         0         0         0         0         0         0         0
         0         0         0         0         0         0         0         0
         0         0         0         0         0         0         0         0
         0         0         0         0         0         0         0         0
         0         0         0         0         0         0         0         0
         0         0         0         0         0         0         0         0
         0         0         0         0         0         0         0         0
         0         0         0         0         0         0         0         0
         0         0         0         0         0         0         0         0
         0         0         0         0         0         0         0         0
         0         0         0         0         0         0         0         0
         0         0         0         0         0         0         0         0
         0         0         0         0         0         0         0         0
         0         0         0         0         0         0         0         0
         0         0         0         0         0         0         0         0
         0         0         0         0         0         0         0         0
         0         0         0         0         0         0         0         0
         0         0         0         0         0         0         0         0
         0         0         0         0         0         0         0         0
         0         0         0         0         0         0         0         0
         0         0         0         0         0         0         0         0
         0         0         0         0         0         0         0         0
         0         0         0         0         0         0         0         0
         0         0         0         0         0         0         0         0
         0         0         0         0         0         0         0         0
         0         0         0         0         0         0         0         0
         0         0         0         0         0         0         0         0
         0         0         0         0         0         0         0         0
         0         0         0         0         0         0         0         0
         0         0         0         0         0         0         0         0
         0         0         0         0         0         0         0         0
         0         0         0         0         0         0         0         0
         0         0         0         0         0         0         0         0
         0         0         0         0         0         0         0         0
         0         0         0         0         0         0         0         0
         0         0         0         0         0         0         0         0
         0         0         0         0         0         0         0         0
         0         0         0         0         0         0         0         0
         0         0         0         0         0         0         0         0
         0         0         0         0         0         0         0         0
         0         0         0         0         0         0         0         0
         0         0         0         0         0         0         0         0
         0         0         0         0         0         0         0         0
         0         0         0         0         0         0         0         0
         0         0         0         0         0         0         0         0
         0         0         0         0         0         0         0         0
         0         0         0         0         0         0         0         0
         0         0         0         0         0         0         0         0
         0         0         0         0         0         0         0         0
         0         0         0         0         0         0         0         0
         0         0         0         0         0         0         0         0
         0         0         0         0         0         0         0         0
         0         0         0         0         0         0         0         0
         0         0         0         0         0         0         0         0
         0         0         0         0         0         0         0         0
         0         0         0         0         0         0         0         0
         0         0         0         0         0         0         0         0
         0         0         0         0         0         0         0         0
         0         0         0         0         0         0         0         0
         0         0         0         0         0         0         0         0
         0         0         0         0         0         0         0         0
         0         0         0         0         0         0         0         0
         0         0         0         0         0         0         0         0
         0         0         0         0         0         0         0         0
         0         0         0         0         0         0         0         0
         0         0         0         0         0         0         0         0
         0         0         0         0         0         0         0         0
         0         0         0         0         0         0         0         0
         0         0         0         0         0         0         0         0
         0         0         0         0         0         0         0         0
         0         0         0         0         0         0         0         0
         0         0         0         0         0         0         0         0
         0         0         0         0         0         0         0         0
         0         0         0         0         0         0         0         0
         0         0         0         0         0         0         0         0
         0         0         0         0         0         0         0         0
         0         0         0         0         0         0         0         0
         0         0         0         0         0         0         0         0
         0         0         0         0         0         0         0         0
         0         0         0         0         0         0         0         0
         0         0         0         0         0         0         0         0
         0         0         0         0         0         0         0         0
         0         0         0         0         0         0         0         0
         0         0         0         0         0         0         0         0
         0         0         0         0         0         0         0         0
         0         0         0         0         0         0         0         0
         0         0         0         0         0         0         0         0
         0         0         0         0         0         0         0         0
         0         0         0         0         0         0         0         0
         0         0         0         0         0         0         0         0
         0         0         0         0         0         0         0         0
         0         0         0         0         0         0         0         0
         0         0         0         0         0         0         0         0
         0         0         0         0         0         0         0         0
         0         0         0         0         0         0         0         0
         0         0         0         0         0         0         0         0
         0         0         0         0         0         0         0         0
         0         0         0         0         0         0         0         0
         0         0         0         0         0         0         0         0
         0         0         0         0         0         0         0         0
         0         0         0         0         0         0         0         0
         0         0         0         0         0         0         0         0
         0         0         0         0         0         0         0         0
         0         0         0         0         0         0         0         0
         0         0         0         0         0         0         0         0
         0         0         0         0         0         0         0         0
         0         0         0         0         0         0         0         0
         0         0         0         0         0         0         0         0
         0         0         0         0         0         0         0         0
         0         0         0         0         0         0         0         0
         0         0         0         0         0         0         0         0
         0         0         0         0         0         0         0         0
         0         0         0         0         0         0         0         0
         0         0         0         0         0         0         0         0
         0         0         0         0         0         0         0         0
         0         0         0         0         0         0         0         0
         0         0         0         0         0         0         0         0
         0         0         0         0         0         0         0         0
         0         0         0         0         0         0         0         0
         0         0         0         0         0         0         0         0
         0         0         0         0         0         0         0         0
         0         0         0         0         0         0         0         0
         0         0         0         0         0         0         0         0
         0         0         0         0         0         0         0         0
         0         0         0         0         0         0         0         0
         0         0         0         0         0         0         0         0
         0         0         0         0         0         0         0         0
         0         0         0         0         0         0         0         0
         0         0         0         0         0         0         0         0
         0         0         0         0         0         0         0         0
         0         0         0         0         0         0         0         0
         0         0         0         0         0         0         0         0
         0         0         0         0         0         0         0         0
         0         0         0         0         0         0         0         0
         0         0         0         0         0         0         0         0
         0         0         0         0         0         0         0         0
         0         0         0         0         0         0         0         0
         0         0         0         0         0         0         0         0
         0         0         0         0         0         0         0         0
         0         0         0         0         0         0         0         0
         0         0         0         0         0         0         0         0
         0         0         0         0         0         0         0         0
         0         0         0         0         0         0         0         0
         0         0         0         0         0         0         0         0
         0         0         0         0         0         0         0         0
         0         0         0         0         0         0         0         0
         0         0         0         0         0         0         0         0
         0         0         0         0         0         0         0         0
         0         0         0         0         0         0         0         0
         0         0         0         0         0         0         0         0
         0         0         0         0         0         0         0         0
         0         0         0         0         0         0         0         0
         0         0         0         0         0         0         0         0
         0         0         0         0         0         0         0         0
         0         0         0         0         0         0         0         0
         0         0         0         0         0         0         0         0
         0         0         0         0         0         0         0         0
         0         0         0         0         0         0         0         0
         0         0         0         0         0         0         0         0
         0         0         0         0         0         0         0         0
         0         0         0         0         0         0         0         0
         0         0         0         0         0         0         0         0
         0         0         0         0         0         0         0         0
         0         0         0         0         0         0         0         0
         0         0         0         0         0         0         0         0
         0         0         0         0         0         0         0         0
         0         0         0         0         0         0         0         0
         0         0         0         0         0         0         0         0
         0         0         0         0         0         0         0         0
         0         0         0         0         0         0         0         0
         0         0         0         0         0         0         0         0
         0         0         0         0         0         0         0         0
         0         0         0         0         0         0         0         0
         0         0         0         0         0         0         0         0
         0         0         0         0         0         0         0         0
         0         0         0         0         0         0         0         0
         0         0         0         0         0         0         0         0
         0         0         0         0         0         0         0         0
         0         0         0         0         0         0         0         0
         0         0         0         0         0         0         0         0
         0         0         0         0         0         0         0         0
         0         0         0         0         0         0         0         0
         0         0         0         0         0         0         0         0
         0         0         0         0         0         0         0         0
         0         0         0         0         0         0         0         0
         0         0         0         0         0         0         0         0
         0         0         0         0         0         0         0         0
         0         0         0         0         0         0         0         0
         0         0         0         0         0         0         0         0
         0         0         0         0         0         0         0         0
         0         0         0         0         0         0         0         0
         0         0         0         0         0         0         0         0
         0         0         0         0         0         0         0         0
         0         0         0         0         0         0         0         0
         0         0         0         0         0         0         0         0
         0         0         0         0         0         0         0         0
         0         0         0         0         0         0         0         0
         0         0         0         0         0         0         0         0
         0         0         0         0         0         0         0         0
         0         0         0         0         0         0         0         0
         0         0         0         0         0         0         0         0
         0         0         0         0         0         0         0         0
         0         0         0         0         0         0         0         0
         0         0         0         0         0         0         0         0
         0         0         0         0         0         0         0         0
         0         0         0         0         0         0         0         0
         0         0         0         0         0         0         0         0
         0         0         0         0         0         0         0         0
         0         0         0         0         0         0         0         0
         0         0         0         0         0         0         0         0
         0         0         0         0         0         0         0         0
         0         0         0         0         0         0         0         0
         0         0         0         0         0         0         0         0
         0         0         0         0         0         0         0         0
         0         0         0         0         0         0         0         0
         0         0         0         0         0         0         0         0
         0         0         0         0         0         0         0         0
         0         0         0         0         0         0         0         0
         0         0         0         0         0         0         0         0
         0         0         0         0         0         0         0         0
         0         0         0         0         0         0         0         0
         0         0         0         0         0         0         0         0
         0         0         0         0         0         0         0         0
         0         0         0         0         0         0         0         0
         0         0         0         0         0         0         0         0
         0         0         0         0         0         0         0         0
         0         0         0         0         0         0         0         0
         0         0         0         0         0         0         0         0
         0         0         0         0         0         0         0         0
         0         0         0         0         0         0         0         0
         0         0         0         0         0         0         0         0
         0         0         0         0         0         0         0         0
         0         0         0         0         0         0         0         0
         0         0         0         0         0         0         0         0
         0         0         0         0         0         0         0         0
         0         0         0         0         0         0         0         0
         0         0         0         0         0         0         0         0
         0         0         0         0         0         0         0         0
         0         0         0         0         0         0         0         0
         0         0         0         0         0         0         0         0
         0         0         0         0         0         0         0         0
         0         0         0         0         0         0         0         0
         0         0         0         0         0         0         0         0
         0         0         0         0         0         0         0         0
         0         0         0         0         0         0         0         0
         0         0         0         0         0         0         0         0
         0         0         0         0         0         0         0         0
         0         0         0         0         0         0         0         0
         0         0         0         0         0         0         0         0
         0         0         0         0         0         0         0         0
         0         0         0         0         0         0         0         0
         0         0         0         0         0         0         0         0
         0         0         0         0         0         0         0         0
         0         0         0         0         0         0         0         0
         0         0         0         0         0         0         0         0
         0         0         0         0         0         0         0         0
         0         0         0         0         0         0         0         0
         0         0         0         0         0         0         0         0
         0         0         0         0         0         0         0         0
         0         0         0         0         0         0         0         0
         0         0         0         0         0         0         0         0
         0         0         0         0         0         0         0         0
         0         0         0         0         0         0         0         0
         0         0         0         0         0         0         0         0
         0         0         0         0         0         0         0         0
         0         0         0         0         0         0         0         0
         0         0         0         0         0         0         0         0
         0         0         0         0         0         0         0         0
         0         0         0         0         0         0         0         0
         0         0         0         0         0         0         0         0
         0         0         0         0         0         0         0         0
         0         0         0         0         0         0         0         0
         0         0         0         0         0         0         0         0
         0         0         0         0         0         0         0         0
         0         0         0         0         0         0         0         0
         0         0         0         0         0         0         0         0
         0         0         0         0         0         0         0         0
         0         0         0         0         0         0         0         0
         0         0         0         0         0         0         0         0
         0         0         0         0         0         0         0         0
         0         0         0         0         0         0         0         0
         0         0         0         0         0         0         0         0
         0         0         0         0         0         0         0         0
         0         0         0         0         0         0         0         0
         0         0         0         0         0         0         0         0
         0         0         0         0         0         0         0         0
         0         0         0         0         0         0         0         0
         0         0         0         0         0         0         0         0
         0         0         0         0         0         0         0         0
         0         0         0         0         0         0         0         0
         0         0         0         0         0         0         0         0
         0         0         0         0         0         0         0         0
         0         0         0         0         0         0         0         0
         0         0         0         0         0         0         0         0
         0         0         0         0         0         0         0         0
         0         0         0         0         0         0         0         0
         0         0         0         0         0         0         0         0
         0         0         0         0         0         0         0         0
         0         0         0         0         0         0         0         0
         0         0         0         0         0         0         0         0
         0         0         0         0         0         0         0         0
         0         0         0         0         0         0         0         0
         0         0         0         0         0         0         0         0
         0         0         0         0         0         0         0         0
         0         0         0         0         0         0         0         0
         0         0         0         0         0         0         0         0
         0         0         0         0         0         0         0         0
         0         0         0         0         0         0         0         0
         0         0         0         0         0         0         0         0
         0         0         0         0         0         0         0         0
         0         0         0         0         0         0         0         0
         0         0         0         0         0         0         0         0
         0         0         0         0         0         0         0         0
         0         0         0         0         0         0         0         0
         0         0         0         0         0         0         0         0
         0         0         0         0         0         0         0         0
         0         0         0         0         0         0         0         0
         0         0         0         0         0         0         0         0
         0         0         0         0         0         0         0         0
         0         0         0         0         0         0         0         0
         0         0         0         0         0         0         0         0
         0         0         0         0         0         0         0         0
         0         0         0         0         0         0         0         0
         0         0         0         0         0         0         0         0
         0         0         0         0         0         0         0         0
         0         0         0         0         0         0         0         0
         0         0         0         0         0         0         0         0
         0         0         0         0         0         0         0         0
         0         0         0         0         0         0         0         0
         0         0         0         0         0         0         0         0
         0         0         0         0         0         0         0         0
         0         0         0         0         0         0         0         0
         0         0         0         0         0         0         0         0
         0         0         0         0         0         0         0         0
         0         0         0         0         0         0         0         0
         0         0         0         0         0         0         0         0
         0         0         0         0         0         0         0         0
         0         0         0         0         0         0         0         0
         0         0         0         0         0         0         0         0
         0         0         0         0         0         0         0         0
         0         0         0         0         0         0         0         0
         0         0         0         0         0         0         0         0
         0         0         0         0         0         0         0         0
         0         0         0         0         0         0         0         0
         0         0         0         0         0         0         0         0
         0         0         0         0         0         0         0         0
         0         0         0         0         0         0         0         0
         0         0         0         0         0         0         0         0
         0         0         0         0         0         0         0         0
         0         0         0         0         0         0         0         0
         0         0         0         0         0         0         0         0
         0         0         0         0         0         0         0         0
         0         0         0         0         0         0         0         0
         0         0         0         0         0         0         0         0
         0         0         0         0         0         0         0         0
         0         0         0         0         0         0         0         0
         0         0         0         0         0         0         0         0
         0         0         0         0         0         0         0         0
         0         0         0         0         0         0         0         0
         0         0         0         0         0         0         0         0
         0         0         0         0         0         0         0         0
         0         0         0         0         0         0         0         0
         0         0         0         0         0         0         0         0
         0         0         0         0         0         0         0         0
         0         0         0         0         0         0         0         0
         0         0         0         0         0         0         0         0
         0         0         0         0         0         0         0         0
         0         0         0         0         0         0         0         0
         0         0         0         0         0         0         0         0
         0         0         0         0         0         0         0         0
         0         0         0         0         0         0         0         0
         0         0         0         0         0         0         0         0
         0         0         0         0         0         0         0         0
         0         0         0         0         0         0         0         0
         0         0         0         0         0         0         0         0
         0         0         0         0         0         0         0         0
         0         0         0         0         0         0         0         0
         0         0         0         0         0         0         0         0
         0         0         0         0         0         0         0         0
         0         0         0         0         0         0         0         0
         0         0         0         0         0         0         0         0
         0         0         0         0         0         0         0         0
         0         0         0         0         0         0         0         0
         0         0         0         0         0         0         0         0
         0         0         0         0         0         0         0         0
         0         0         0         0         0         0         0         0
         0         0         0         0         0         0         0         0
         0         0         0         0         0         0         0         0
         0         0         0         0         0         0         0         0
         0         0         0         0         0         0         0         0
         0         0         0         0         0         0         0         0
         0         0         0         0         0         0         0         0
         0         0         0         0         0         0         0         0
         0         0         0         0         0         0         0         0
         0         0         0         0         0         0         0         0
         0         0         0         0         0         0         0         0
         0         0         0         0         0         0         0         0
         0         0         0         0         0         0         0         0
         0         0         0         0         0         0         0         0
         0         0         0         0         0         0         0         0
         0         0         0         0         0         0         0         0
         0         0         0         0         0         0         0         0
         0         0         0         0         0         0         0         0
         0         0         0         0         0         0         0         0
         0         0         0         0         0         0         0         0
         0         0         0         0         0         0         0         0
         0         0         0         0         0         0         0         0
         0         0         0         0         0         0         0         0
         0         0         0         0         0         0         0         0
         0         0         0         0         0         0         0         0
         0         0         0         0         0         0         0         0
         0         0         0         0         0         0         0         0
         0         0         0         0         0         0         0         0
         0         0         0         0         0         0         0         0
         0         0         0         0         0         0         0         0
         0         0         0         0         0         0         0         0
         0         0         0         0         0         0         0         0
         0         0         0         0         0         0         0         0
         0         0         0         0         0         0         0         0
         0         0         0         0         0         0         0         0
         0         0         0         0         0         0         0         0
         0         0         0         0         0         0         0         0
         0         0         0         0         0         0         0         0
         0         0         0         0         0         0         0         0
         0         0         0         0         0         0         0         0
         0         0         0         0         0         0         0         0
         0         0         0         0         0         0         0         0
         0         0         0         0         0         0         0         0
         0         0         0         0         0         0         0         0
         0         0         0         0         0         0         0         0
         0         0         0         0         0         0         0         0
         0         0         0         0         0         0         0         0
         0         0         0         0         0         0         0         0
         0         0         0         0         0         0         0         0
         0         0         0         0         0         0         0         0
         0         0         0         0         0         0         0         0
         0         0         0         0         0         0         0         0
         0         0         0         0         0         0         0         0
         0         0         0         0         0         0         0         0
         0         0         0         0         0         0         0         0
         0         0         0         0         0         0         0         0
         0         0         0         0         0         0         0         0
         0         0         0         0         0         0         0         0
         0         0         0         0         0         0         0         0
         0         0         0         0         0         0         0         0
         0         0         0         0         0         0         0         0
         0         0         0         0         0         0         0         0
         0         0         0         0         0         0         0         0
         0         0         0         0         0         0         0         0
         0         0         0         0         0         0         0         0
         0         0         0         0         0         0         0         0
         0         0         0         0         0         0         0         0
         0         0         0         0         0         0         0         0
         0         0         0         0         0         0         0         0
         0         0         0         0         0         0         0         0
         0         0         0         0         0         0         0         0
         0         0         0         0         0         0         0         0
         0         0         0         0         0         0         0         0
         0         0         0         0         0         0         0         0
         0         0         0         0         0         0         0         0
         0         0         0         0         0         0         0         0
         0         0         0         0         0         0         0         0
         0         0         0         0         0         0         0         0
         0         0         0         0         0         0         0         0
         0         0         0         0         0         0         0         0
         0         0         0         0         0         0         0         0
         0         0         0         0         0         0         0         0
         0         0         0         0         0         0         0         0
         0         0         0         0         0         0         0         0
         0         0         0         0         0         0         0         0
         0         0         0         0         0         0         0         0
         0         0         0         0         0         0         0         0
         0         0         0         0         0         0         0         0
         0         0         0         0         0         0         0         0
         0         0         0         0         0         0         0         0
         0         0         0         0         0         0         0         0
         0         0         0         0         0         0         0         0
         0         0         0         0         0         0         0         0
         0         0         0         0         0         0         0         0
         0         0         0         0         0         0         0         0
         0         0         0         0         0         0         0         0
         0         0         0         0         0         0         0         0
         0         0         0         0         0         0         0         0
         0         0         0         0         0         0         0         0
         0         0         0         0         0         0         0         0
         0         0         0         0         0         0         0         0
         0         0         0         0         0         0         0         0
         0         0         0         0         0         0         0         0
         0         0         0         0         0         0         0         0
         0         0         0         0         0         0         0         0
         0         0         0         0         0         0         0         0
         0         0         0         0         0         0         0         0
         0         0         0         0         0         0         0         0
         0         0         0         0         0         0         0         0
         0         0         0         0         0         0         0         0
         0         0         0         0         0         0         0         0
         0         0         0         0         0         0         0         0
         0         0         0         0         0         0         0         0
         0         0         0         0         0         0         0         0
         0         0         0         0         0         0         0         0
         0         0         0         0         0         0         0         0
         0         0         0         0         0         0         0         0
         0         0         0         0         0         0         0         0
         0         0         0         0         0         0         0         0
         0         0         0         0         0         0         0         0
         0         0         0         0         0         0         0         0
         0         0         0         0         0         0         0         0
         0         0         0         0         0         0         0         0
         0         0         0         0         0         0         0         0
         0         0         0         0         0         0         0         0
         0         0         0         0         0         0         0         0
         0         0         0         0         0         0         0         0
         0         0         0         0         0         0         0         0
         0         0         0         0         0         0         0         0
         0         0         0         0         0         0         0         0
         0         0         0         0         0         0         0         0
         0         0         0         0         0         0         0         0
         0         0         0         0         0         0         0         0
         0         0         0         0         0         0         0         0
         0         0         0         0         0         0         0         0
         0         0         0         0         0         0         0         0
         0         0         0         0         0         0         0         0
         0         0         0         0         0         0         0         0
         0         0         0         0         0         0         0         0
         0         0         0         0         0         0         0         0
         0         0         0         0         0         0         0         0
         0         0         0         0         0         0         0         0
         0         0         0         0         0         0         0         0
         0         0         0         0         0         0         0         0
         0         0         0         0         0         0         0         0
         0         0         0         0         0         0         0         0
         0         0         0         0         0         0         0         0
         0         0         0         0         0         0         0         0
         0         0         0         0         0         0         0         0
         0         0         0         0         0         0         0         0
         0         0         0         0         0         0         0         0
         0         0         0         0         0         0         0         0
         0         0         0         0         0         0         0         0
         0         0         0         0         0         0         0         0
         0         0         0         0         0         0         0         0
         0         0         0         0         0         0         0         0
         0         0         0         0         0         0         0         0
         0         0         0         0         0         0         0         0
         0         0         0         0         0         0         0         0
         0         0         0         0         0         0         0         0
         0         0         0         0         0         0         0         0
         0         0         0         0         0         0         0         0
         0         0         0         0         0         0         0         0
         0         0         0         0         0         0         0         0
         0         0         0         0         0         0         0         0
         0         0         0         0         0         0         0         0
         0         0         0         0         0         0         0         0
         0         0         0         0         0         0         0         0
         0         0         0         0         0         0         0         0
         0         0         0         0         0         0         0         0
         0         0         0         0         0         0         0         0
         0         0         0         0         0         0         0         0
         0         0         0         0         0         0         0         0
         0         0         0         0         0         0         0         0
         0         0         0         0         0         0         0         0
         0         0         0         0         0         0         0         0
         0         0         0         0         0         0         0         0
         0         0         0         0         0         0         0         0
         0         0         0         0         0         0         0         0
         0         0         0         0         0         0         0         0
         0         0         0         0         0         0         0         0
         0         0         0         0         0         0         0         0
         0         0         0         0         0         0         0         0
         0         0         0         0         0         0         0         0
         0         0         0         0         0         0         0         0
         0         0         0         0         0         0         0         0
         0         0         0         0         0         0         0         0
         0         0         0         0         0         0         0         0
         0         0         0         0         0         0         0         0
         0         0         0         0         0         0         0         0
         0         0         0         0         0         0         0         0
         0         0         0         0         0         0         0         0
         0         0         0         0         0         0         0         0
         0         0         0         0         0         0         0         0
         0         0         0         0         0         0         0         0
         0         0         0         0         0         0         0         0
         0         0         0         0         0         0         0         0
         0         0         0         0         0         0         0         0
         0         0         0         0         0         0         0         0
         0         0         0         0         0         0         0         0
         0         0         0         0         0         0         0         0
         0         0         0         0         0         0         0         0
         0         0         0         0         0         0         0         0
         0         0         0         0         0         0         0         0
         0         0         0         0         0         0         0         0
         0         0         0         0         0         0         0         0
         0         0         0         0         0         0         0         0
         0         0         0         0         0         0         0         0
         0         0         0         0         0         0         0         0
         0         0         0         0         0         0         0         0
         0         0         0         0         0         0         0         0
         0         0         0         0         0         0         0         0
         0         0         0         0         0         0         0         0
         0         0         0         0         0         0         0         0
         0         0         0         0         0         0         0         0
         0         0         0         0         0         0         0         0
         0         0         0         0         0         0         0         0
         0         0         0         0         0         0         0         0
         0         0         0         0         0         0         0         0
         0         0         0         0         0         0         0         0
         0         0         0         0         0         0         0         0
         0         0         0         0         0         0         0         0
         0         0         0         0         0         0         0         0
         0         0         0         0         0         0         0         0
         0         0         0         0         0         0         0         0
         0         0         0         0         0         0         0         0
         0         0         0         0         0         0         0         0
         0         0         0         0         0         0         0         0
         0         0         0         0         0         0         0         0
         0         0         0         0         0         0         0         0
         0         0         0         0         0         0         0         0
         0         0         0         0         0         0         0         0
         0         0         0         0         0         0         0         0
         0         0         0         0         0         0         0         0
         0         0         0         0         0         0         0         0
         0         0         0         0         0         0         0         0
         0         0         0         0         0         0         0         0
         0         0         0         0         0         0         0         0
         0         0         0         0         0         0         0         0
         0         0         0         0         0         0         0         0
         0         0         0         0         0         0         0         0
         0         0         0         0         0         0         0         0
         0         0         0         0         0         0         0         0
         0         0         0         0         0         0         0         0
         0         0         0         0         0         0         0         0
         0         0         0         0         0         0         0         0
         0         0         0         0         0         0         0         0
         0         0         0         0         0         0         0         0
         0         0         0         0         0         0         0         0
         0         0         0         0         0         0         0         0
         0         0         0         0         0         0         0         0
         0         0         0         0         0         0         0         0
         0         0         0         0         0         0         0         0
         0         0         0         0         0         0         0         0
         0         0         0         0         0         0         0         0
         0         0         0         0         0         0         0         0
         0         0         0         0         0         0         0         0
         0         0         0         0         0         0         0         0
         0         0         0         0         0         0         0         0
         0         0         0         0         0         0         0         0
         0         0         0         0         0         0         0         0
         0         0         0         0         0         0         0         0
         0         0         0         0         0         0         0         0
         0         0         0         0         0         0         0         0
         0         0         0         0         0         0         0         0
         0         0         0         0         0         0         0         0
         0         0         0         0         0         0         0         0
         0         0         0         0         0         0         0         0
         0         0         0         0         0         0         0         0
         0         0         0         0         0         0         0         0
         0         0         0         0         0         0         0         0
         0         0         0         0         0         0         0         0
         0         0         0         0         0         0         0         0
         0         0         0         0         0         0         0         0
         0         0         0         0         0         0         0         0
         0         0         0         0         0         0         0         0
         0         0         0         0         0         0         0         0
         0         0         0         0         0         0         0         0
         0         0         0         0         0         0         0         0
         0         0         0         0         0         0         0         0
         0         0         0         0         0         0         0         0
         0         0         0         0         0         0         0         0
         0         0         0         0         0         0         0         0
         0         0         0         0         0         0         0         0
         0         0         0         0         0         0         0         0
         0         0         0         0         0         0         0         0
         0         0         0         0         0         0         0         0
         0         0         0         0         0         0         0         0
         0         0         0         0         0         0         0         0
         0         0         0         0         0         0         0         0
         0         0         0         0         0         0         0         0
         0         0         0         0         0         0         0         0
         0         0         0         0         0         0         0         0
         0         0         0         0         0         0         0         0
         0         0         0         0         0         0         0         0
         0         0         0         0         0         0         0         0
         0         0         0         0         0         0         0         0
         0         0         0         0         0         0         0         0
         0         0         0         0         0         0         0         0
         0         0         0         0         0         0         0         0
         0         0         0         0         0         0         0         0
         0         0         0         0         0         0         0         0
         0         0         0         0         0         0         0         0
         0         0         0         0         0         0         0         0
         0         0         0         0         0         0         0         0
         0         0         0         0         0         0         0         0
         0         0         0         0         0         0         0         0
         0         0         0         0         0         0         0         0
         0         0         0         0         0         0         0         0
         0         0         0         0         0         0         0         0
         0         0         0         0         0         0         0         0
         0         0         0         0         0         0         0         0
         0         0         0         0         0         0         0         0
         0         0         0         0         0         0         0         0
         0         0         0         0         0         0         0         0
         0         0         0         0         0         0         0         0
         0         0         0         0         0         0         0         0
         0         0         0         0         0         0         0         0
         0         0         0         0         0         0         0         0
         0         0         0         0         0         0         0         0
         0         0         0         0         0         0         0         0
         0         0         0         0         0         0         0         0
         0         0         0         0         0         0         0         0
         0         0         0         0         0         0         0         0
         0         0         0         0         0         0         0         0
         0         0         0         0         0         0         0         0
         0         0         0         0         0         0         0         0
         0         0         0         0         0         0         0         0
         0         0         0         0         0         0         0         0
         0         0         0         0         0         0         0         0
         0         0         0         0         0         0         0         0
         0         0         0         0         0         0         0         0
         0         0         0         0         0         0         0         0
         0         0         0         0         0         0         0         0
         0         0         0         0         0         0         0         0
         0         0         0         0         0         0         0         0
         0         0         0         0         0         0         0         0
         0         0         0         0         0         0         0         0
         0         0         0         0         0         0         0         0
         0         0         0         0         0         0         0         0
         0         0         0         0         0         0         0         0
         0         0         0         0         0         0         0         0
         0         0         0         0         0         0         0         0
         0         0         0         0         0         0         0         0
         0         0         0         0         0         0         0         0
         0         0         0         0         0         0         0         0
         0         0         0         0         0         0         0         0
         0         0         0         0         0         0         0         0
         0         0         0         0         0         0         0         0
         0         0         0         0         0         0         0         0
         0         0         0         0         0         0         0         0
         0         0         0         0         0         0         0         0
         0         0         0         0         0         0         0         0
         0         0         0         0         0         0         0         0
         0         0         0         0         0         0         0         0
         0         0         0         0         0         0         0         0
         0         0         0         0         0         0         0         0
         0         0         0         0         0         0         0         0
         0         0         0         0         0         0         0         0
         0         0         0         0         0         0         0         0
         0         0         0         0         0         0         0         0
         0         0         0         0         0         0         0         0
         0         0         0         0         0         0         0         0
         0         0         0         0         0         0         0         0
         0         0         0         0         0         0         0         0
         0         0         0         0         0         0         0         0
         0         0         0         0         0         0         0         0
         0         0         0         0         0         0         0         0
         0         0         0         0         0         0         0         0
         0         0         0         0

      1000         0 !NGRP NST2
         0         2         0        20         2         0        40         2         0
        60         2         0        80         2         0       100         2         0
       120         2         0       140         2         0       160         2         0
       180         2         0       200         2         0       220         2         0
       240         2         0       260         2         0       280         2         0
       300         2         0       320         2         0       340         2         0
       360         2         0       380         2         0       400         2         0
       420         2         0       440         2         0       460         2         0
       480         2         0       500         2         0       520         2         0
       540         2         0       560         2         0       580         2         0
       600         2         0       620         2         0       640         2         0
       660         2         0       680         2         0       700         2         0
       720         2         0       740         2         0       760         2         0
       780         2         0       800         2         0       820         2         0
       840         2         0       860         2         0       880         2         0
       900         2         0       920         2         0       940         2         0
       960         2         0       980         2         0      1000         2         0
      1020         2         0      1040         2         0      1060         2         0
      1080         2         0      1100         2         0      1120         2         0
      1140         2         0      1160         2         0      1180         2         0
      1200         2         0      1220         2         0      1240         2         0
      1260         2         0      1280         2         0      1300         2         0
      1320         2         0      1340         2         0      1360         2         0
      1380         2         0      1400         2         0      1420         2         0
      1440         2         0      1460         2         0      1480         2         0
      1500         2         0      1520         2         0      1540         2         0
      1560         2         0      1580         2         0      1600         2         0
      1620         2         0      1640         2         0      1660         2         0
      1680         2         0      1700         2         0      1720         2         0
      1740         2         0      1760         2         0      1780         2         0
      1800         2         0      1820         2         0      1840         2         0
      1860         2         0      1880         2         0      1900         2         0
      1920         2         0      1940         2         0      1960         2         0
      1980         2         0      2000         2         0      2020         2         0
      2040         2         0      2060         2         0      2080         2         0
      2100         2         0      2120         2         0      2140         2         0
      2160         2         0      2180         2         0      2200         2         0
      2220         2         0      2240         2         0      2260         2         0
      2280         2         0      2300         2         0      2320         2         0
      2340         2         0      2360         2         0      2380         2         0
      2400         2         0      2420         2         0      2440         2         0
      2460         2         0      2480         2         0      2500         2         0
      2520         2         0      2540         2         0      2560         2         0
      2580         2         0      2600         2         0      2620         2         0
      2640         2         0      2660         2         0      2680         2         0
      2700         2         0      2725         2         0      2750         2         0
      2775         2         0      2800         2         0      2825         2         0
      2850         2         0      2875         2         0      2900         2         0
      2925         2         0      2950         2         0      2975         2         0
      3000         2         0      3025         2         0      3050         2         0
      3075         2         0      3100         2         0      3125         2         0
      3150         2         0      3175         2         0      3200         2         0
      3225         2         0      3250         2         0      3275         2         0
      3300         2         0      3325         2         0      3350         2         0
      3375         2         0      3400         2         0      3425         2         0
      3450         2         0      3475         2         0      3500         2         0
      3525         2         0      3550         2         0      3575         2         0
      3600         2         0      3625         2         0      3650         2         0
      3675         2         0      3700         2         0      3725         2         0
      3750         2         0      3775         2         0      3800         2         0
      3825         2         0      3850         2         0      3875         2         0
      3900         2         0      3925         2         0      3950         2         0
      3975         2         0      4000         2         0      4025         2         0
      4050         2         0      4075         2         0      4100         2         0
      4125         2         0      4150         2         0      4175         2         0
      4200         2         0      4225         2         0      4250         2         0
      4275         2         0      4300         2         0      4325         2         0
      4350         2         0      4375         2         0      4400         2         0
      4425         2         0      4450         2         0      4475         2         0
      4500         2         0      4525         2         0      4550         2         0
      4575         2         0      4600         2         0      4625         2         0
      4650         2         0      4675         2         0      4700         2         0
      4725         2         0      4750         2         0      4775         2         0
      4800         2         0      4825         2         0      4850         2         0
      4875         2         0      4900         2         0      4925         2         0
      4950         2         0      4975         2         0      5000         2         0
      5025         2         0      5050         2         0      5075         2         0
      5100         2         0      5125         2         0      5150         2         0
      5175         2         0      5200         2         0      5225         2         0
      5250         2         0      5275         2         0      5300         2         0
      5325         2         0      5350         2         0      5375         2         0
      5400         2         0      5425         2         0      5450         2         0
      5475         2         0      5500         2         0      5525         2         0
      5550         2         0      5575         2         0      5600         2         0
      5625         2         0      5650         2         0      5675         2         0
      5700         2         0      5725         2         0      5750         2         0
      5775         2         0      5800         2         0      5825         2         0
      5850         2         0      5875         2         0      5900         2         0
      5925         2         0      5950         2         0      5975         2         0
      6000         2         0      6025         2         0      6050         2         0
      6075         1         0      6095         1         0      6115         1         0
      6135         1         0      6155         1         0      6175         1         0
      6195         1         0      6215         1         0      6235         1         0
      6255         1         0      6275         1         0      6295         1         0
      6315         1         0      6335         1         0      6355         1         0
      6375         1         0      6395         1         0      6415         1         0
      6435         1         0      6455         1         0      6475         1         0
      6495         1         0      6515         1         0      6535         1         0
      6555         1         0      6575         1         0      6595         1         0
      6615         1         0      6635         1         0      6655         1         0
      6675         1         0      6695         1         0      6715         1         0
      6735         1         0      6755         1         0      6775         1         0
      6795         1         0      6815         1         0      6835         1         0
      6855         1         0      6875         1         0      6895         1         0
      6915         1         0      6935         1         0      6955         1         0
      6975         1         0      6995         1         0      7015         1         0
      7035         1         0      7055         1         0      7075         1         0
      7095         1         0      7115         1         0      7135         1         0
      7155         1         0      7175         1         0      7195         1         0
      7215         1         0      7235         1         0      7255         1         0
      7275         1         0      7295         1         0      7315         1         0
      7335         1         0      7355         1         0      7375         1         0
      7395         1         0      7415         1         0      7435         1         0
      7455         1         0      7475         1         0      7495         1         0
      7515         1         0      7535         1         0      7555         1         0
      7575         1         0      7595         1         0      7615         1         0
      7635         1         0      7655         1         0      7675         1         0
      7695         1         0      7715         1         0      7735         1         0
      7755         1         0      7775         1         0      7795         1         0
      7815         1         0      7835         1         0      7855         1         0
      7875         1         0      7895         1         0      7915         1         0
      7935         1         0      7955         1         0      7975         1         0
      7995         1         0      8015         1         0      8035         1         0
      8055         1         0      8075         1         0      8095         1         0
      8115         1         0      8135         1         0      8155         1         0
      8175         1         0      8195         1         0      8215         1         0
      8235         1         0      8255         1         0      8275         1         0
      8295         1         0      8315         1         0      8335         1         0
      8355         1         0      8375         1         0      8395         1         0
      8415         1         0      8435         1         0      8455         1         0
      8475         1         0      8495         1         0      8515         1         0
      8535         1         0      8555         1         0      8575         1         0
      8595         1         0      8615         1         0      8635         1         0
      8655         1         0      8675         1         0      8695         1         0
      8715         1         0      8735         1         0      8755         1         0
      8775         1         0      8795         1         0      8815         1         0
      8835         1         0      8855         1         0      8875         1         0
      8895         1         0      8915         1         0      8935         1         0
      8955         1         0      8975         1         0      8995         1         0
      9015         1         0      9035         1         0      9055         1         0
      9075         1         0      9095         1         0      9115         1         0
      9135         1         0      9155         1         0      9175         1         0
      9195         1         0      9215         1         0      9235         1         0
      9255         1         0      9275         1         0      9295         1         0
      9315         1         0      9335         1         0      9355         1         0
      9375         1         0      9395         1         0      9415         1         0
      9435         1         0      9455         1         0      9475         1         0
      9495         1         0      9515         1         0      9535         1         0
      9555         1         0      9575         1         0      9595         1         0
      9615         1         0      9635         1         0      9655         1         0
      9675         1         0      9695         1         0      9715         1         0
      9735         1         0      9755         1         0      9775         1         0
      9795         1         0      9815         1         0      9835         1         0
      9855         1         0      9875         1         0      9895         1         0
      9915         1         0      9935         1         0      9955         1         0
      9975         1         0      9995         1         0     10015         1         0
     10035         1         0     10055         1         0     10075         1         0
     10095         1         0     10115         1         0     10135         1         0
     10155         1         0     10175         1         0     10195         1         0
     10215         1         0     10235         1         0     10255         1         0
     10275         1         0     10295         1         0     10315         1         0
     10335         1         0     10355         1         0     10375         1         0
     10395         1         0     10415         1         0     10435         1         0
     10455         1         0     10475         1         0     10495         1         0
     10515         1         0     10535         1         0     10555         1         0
     10575         1         0     10595         1         0     10615         1         0
     10635         1         0     10655         1         0     10675         1         0
     10695         1         0     10715         1         0     10735         1         0
     10755         1         0     10775         1         0     10795         1         0
     10815         1         0     10835         1         0     10855         1         0
     10875         1         0     10895         1         0     10915         1         0
     10935         1         0     10955         1         0     10975         1         0
     10995         1         0     11015         1         0     11035         1         0
     11055         1         0     11075         1         0     11095         1         0
     11115         1         0     11135         1         0     11155         1         0
     11175         1         0     11195         1         0     11215         1         0
     11235         1         0     11255         1         0     11275         1         0
     11295         1         0     11315         1         0     11335         1         0
     11355         1         0     11375         1         0     11395         1         0
     11415         1         0     11435         1         0     11455         1         0
     11475         1         0     11495         1         0     11515         1         0
     11535         1         0     11555         1         0     11575         1         0
     11595         1         0     11615         1         0     11635         1         0
     11655         1         0     11675         1         0     11695         1         0
     11715         1         0     11735         1         0     11755         1         0
     11775         1         0     11795         1         0     11815         1         0
     11835         1         0     11855         1         0     11875         1         0
     11895         1         0     11915         1         0     11935         1         0
     11955         1         0     11975         1         0     11995         1         0
     12015         1         0     12035         1         0     12055         1         0
     12075         1         0     12095         1         0     12115         1         0
     12135         1         0     12155         1         0     12175         1         0
     12195         1         0     12215         1         0     12235         1         0
     12255         1         0     12275         1         0     12295         1         0
     12315         1         0     12335         1         0     12355         1         0
     12375         1         0     12395         1         0     12415         1         0
     12435         1         0     12455         1         0     12475         1         0
     12495         1         0     12515         1         0     12535         1         0
     12555         1         0     12575         1         0     12595         1         0
     12615         1         0     12635         1         0     12655         1         0
     12675         1         0     12695         1         0     12715         1         0
     12735         1         0     12755         1         0     12775         1         0
     12795         1         0     12815         1         0     12835         1         0
     12855         1         0     12875         1         0     12895         1         0
     12915         1         0     12935         1         0     12955         1         0
     12975         1         0     12995         1         0     13015         1         0
     13035         1         0     13055         1         0     13075         1         0
     13095         1         0     13115         1         0     13135         1         0
     13155         1         0     13175         1         0     13195         1         0
     13215         1         0     13235         1         0     13255         1         0
     13275         1         0     13295         1         0     13315         1         0
     13335         1         0     13355         1         0     13375         1         0
     13400         1         0     13425         1         0     13450         1         0
     13475         1         0     13500         1         0     13525         1         0
     13550         1         0     13575         1         0     13600         1         0
     13625         1         0     13650         1         0     13675         1         0
     13700         1         0     13725         1         0     13750         1         0
     13775         1         0     13800         1         0     13825         1         0
     13850         1         0     13875         1         0     13900         1         0
     13925         1         0     13950         1         0     13975         1         0
     14000         1         0     14025         1         0     14050         1         0
     14075         1         0     14100         1         0     14125         1         0
     14150         1         0     14175         1         0     14200         1         0
     14225         1         0     14250         1         0     14275         1         0
     14300         1         0     14325         1         0     14350         1         0
     14375         1         0     14400         1         0     14425         1         0
     14450         1         0     14475         1         0     14500         1         0
     14525         1         0     14550         1         0     14575         1         0
     14600         1         0     14625         1         0     14650         1         0
     14675         1         0     14700         1         0     14725         1         0
     14750         1         0     14775         1         0     14800         1         0
     14825         1         0     14850         1         0     14875         1         0
     14900         1         0     14925         1         0     14950         1         0
     14975         1         0     15000         1         0     15025         1         0
     15050         1         0     15075         1         0     15100         1         0
     15125         1         0     15150         1         0     15175         1         0
     15200         1         0     15225         1         0     15250         1         0
     15275         1         0     15300         1         0     15325         1         0
     15350         1         0     15375         1         0     15400         1         0
     15425         1         0     15450         1         0     15475         1         0
     15500         1         0     15525         1         0     15550         1         0
     15575         1         0     15600         1         0     15625         1         0
     15650         1         0     15675         1         0     15700         1         0
     15725         1         0     15750         1         0     15775         1         0
     15800         1         0     15825         1         0     15850         1         0
     15875         1         0     15900         1         0     15925         1         0
     15950         1         0     15975         1         0     16000         1         0
     16025         1         0     16050         1         0     16075         1         0
     16100         1         0     16125         1         0     16150         1         0
     16175         1         0     16200         1         0     16225         1         0
     16250         1         0     16275         1         0     16300         1         0
     16325         1         0     16350         1         0     16375         1         0
     16400         1         0     16425         1         0     16450         1         0
     16475         1         0     16500         1         0     16525         1         0
     16550         1         0     16575         1         0     16600         1         0
     16625         1         0     16650         1         0     16675         1         0
     16700         1         0     16725         1         0     16750         1         0
     16775         1         0     16800         1         0     16825         1         0
     16850         1         0     16875         1         0     16900         1         0
     16925         1         0     16950         1         0     16975         1         0
     17000         1         0     17025         1         0     17050         1         0
     17075         1         0     17100         1         0     17125         1         0
     17150         1         0     17175         1         0     17200         1         0
     17225         1         0     17250         1         0     17275         1         0
     17300         1         0     17325         1         0     17350         1         0
     17375         1         0     17400         1         0     17425         1         0
     17450         1         0     17475         1         0     17500         1         0
     17525         1         0     17550         1         0     17575         1         0
     17600         1         0     17625         1         0     17650         1         0
     17675         1         0     17700         1         0     17725         1         0
     17750         1         0     17775         1         0     17800         1         0
     17825         1         0     17850         1         0     17875         1         0
     17900         1         0     17925         1         0     17950         1         0
     17975         1         0     18000         1         0     18025         1         0
     18050         1         0     18075         1         0     18100         1         0
     18125         1         0     18150         1         0     18175         1         0
     18200         1         0     18225         1         0     18250         1         0
     18275         1         0     18300         1         0     18325         1         0
     18350         1         0     18375         1         0     18400         1         0
     18425         1         0     18450         1         0     18475         1         0
     18500         1         0     18525         1         0     18550         1         0
     18575         1         0     18600         1         0     18625         1         0
     18650         1         0     18675         1         0     18700         1         0
     18725         1         0     18750         1         0     18775         1         0
     18800         1         0     18825         1         0     18850         1         0
     18875         1         0     18900         1         0     18925         1         0
     18950         1         0     18975         1         0     19000         1         0
     19025         1         0     19050         1         0     19075         1         0
     19100         1         0     19125         1         0     19150         1         0
     19175         1         0     19200         1         0     19225         1         0
     19250         1         0     19275         1         0     19300         1         0
     19325         1         0     19350         1         0     19375         1         0
     19400         1         0     19425         1         0     19450         1         0
     19475         1         0     19500         1         0     19525         1         0
     19550         1         0     19575         1         0     19600         1         0
     19625         1         0     19650         1         0     19675         1         0
     19700         1         0     19725         1         0     19750         1         0
     19775         1         0     19800         1         0     19825         1         0
     19850         1         0     19875         1         0     19900         1         0
     19925         1         0     19950         1         0     19975         1         0
     20000         1         0     20025         1         0     20050         1         0
     20075         1         0     20100         1         0     20125         1         0
     20150         1         0     20175         1         0     20200         1         0
     20225         1         0     20250         1         0     20275         1         0
     20300         1         0     20325         1         0     20350         1         0
     20375         1         0     20400         1         0     20425         1         0
     20450         1         0     20475         1         0     20500         1         0
     20525         1         0     20550         1         0     20575         1         0
     20600         1         0     20625         1         0     20650         1         0
     20675         1         0     20700         1         0     20725         1         0
     20750         1         0     20775         1         0     20800         1         0
     20825         1         0     20850         1         0     20875         1         0
     20900         1         0     20925         1         0     20950         1         0
     20975         1         0     21000         1         0     21025         1         0
     21050         1         0     21075         1         0     21100         1         0
     21125         1         0     21150         1         0     21175         1         0
     21200         1         0     21225         1         0     21250         1         0
     21275         1         0     21300         1         0     21325         1         0
     21350         1         0     21375         1         0     21400         1         0
     21425         1         0     21450         1         0     21475         1         0
     21500         1         0     21525         1         0     21550         1         0
     21575         1         0     21600         1         0     21625         1         0
     21650         1         0     21675         1         0     21700         1         0
     21725         1         0     21750         1         0     21775         1         0
     21800         1         0     21825         1         0     21850         1         0
     21875         1         0     21900         1         0     21925         1         0
     21950         1         0     21975         1         0     22000         1         0
     22025         1         0     22050         1         0     22075         1         0
     22100         1         0     22125         1         0     22150         1         0
     22175         1         0     22200         1         0     22225         1         0
     22250         1         0     22275         1         0     22300         1         0
     22325         1         0     22350         1         0     22375         1         0
     22400         1         0     22425         1         0     22450         1         0
     22475         1         0

         1 !MOLNT
         1         1         1         1         1         1         1         1
         1         1         1         1         1         1         1         1
         1         1         1         1         1         1         1         1
         1         1         1         1         1         1         1         1
         1         1         1         1         1         1         1         1
         1         1         1         1         1         1         1         1
         1         1         1         1         1         1         1         1
         1         1         1         1         1         1         1         1
         1         1         1         1         1         1         1         1
         1         1         1         1         1         1         1         1
         1         1         1         1         1         1         1         1
         1         1         1         1         1         1         1         1
         1         1         1         1         1         1         1         1
         1         1         1         1         1         1         1         1
         1         1         1         1         1         1         1         1
         1         1         1         1         1         1         1         1
         1         1         1         1         1         1         1         1
         1         1         1         1         1         1         1         1
         1         1         1         1         1         1         1         1
         1         1         1         1         1         1         1         1
         1         1         1         1         1         1         1         1
         1         1         1         1         1         1         1         1
         1         1         1         1         1         1         1         1
         1         1         1         1         1         1         1         1
         1         1         1         1         1         1         1         1
         1         1         1         1         1         1         1         1
         1         1         1         1         1         1         1         1
         1         1         1         1         1         1         1         1
         1         1         1         1         1         1         1         1
         1         1         1         1         1         1         1         1
         1         1         1         1         1         1         1         1
         1         1         1         1         1         1         1         1
         1         1         1         1         1         1         1         1
         1         1         1         1         1         1         1         1
         1         1         1         1         1         1         1         1
         1         1         1         1         1         1         1         1
         1         1         1         1         1         1         1         1
         1         1         1         1         1         1         1         1
         1         1         1         1         1         1         1         1
         1         1         1         1         1         1         1         1
         1         1         1         1         1         1         1         1
         1         1         1         1         1         1         1         1
         1         1         1         1         1         1         1         1
         1         1         1         1         1         1         1         1
         1         1         1         1         1         1         1         1
         1         1         1         1         1         1         1         1
         1         1         1         1         1         1         1         1
         1         1         1         1         1         1         1         1
         1         1         1         1         1         1         1         1
         1         1         1         1         1         1         1         1
         1         1         1         1         1         1         1         1
         1         1         1         1         1         1         1         1
         1         1         1         1         1         1         1         1
         1         1         1         1         1         1         1         1
         1         1         1         1         1         1         1         1
         1         1         1         1         1         1         1         1
         1         1         1         1         1         1         1         1
         1         1         1         1         1         1         1         1
         1         1         1         1         1         1         1         1
         1         1         1         1         1         1         1         1
         1         1         1         1         1         1         1         1
         1         1         1         1         1         1         1         1
         1         1         1         1         1         1         1         1
         1         1         1         1         1         1         1         1
         1         1         1         1         1         1         1         1
         1         1         1         1         1         1         1         1
         1         1         1         1         1         1         1         1
         1         1         1         1         1         1         1         1
         1         1         1         1         1         1         1         1
         1         1         1         1         1         1         1         1
         1         1         1         1         1         1         1         1
         1         1         1         1         1         1         1         1
         1         1         1         1         1         1         1         1
         1         1         1         1         1         1         1         1
         1         1         1         1         1         1         1         1
         1         1         1         1         1         1         1         1
         1         1         1         1         1         1         1         1
         1         1         1         1         1         1         1         1
         1         1         1         1         1         1         1         1
         1         1         1         1         1         1         1         1
         1         1         1         1         1         1         1         1
         1         1         1         1         1         1         1         1
         1         1         1         1         1         1         1         1
         1         1         1         1         1         1         1         1
         1         1         1         1         1         1         1         1
         1         1         1         1         1         1         1         1
         1         1         1         1         1         1         1         1
         1         1         1         1         1         1         1         1
         1         1         1         1         1         1         1         1
         1         1         1         1         1         1         1         1
         1         1         1         1         1         1         1         1
         1         1         1         1         1         1         1         1
         1         1         1         1         1         1         1         1
         1         1         1         1         1         1         1         1
         1         1         1         1         1         1         1         1
         1         1         1         1         1         1         1         1
         1         1         1         1         1         1         1         1
         1         1         1         1         1         1         1         1
         1         1         1         1         1         1         1         1
         1         1         1         1         1         1         1         1
         1         1         1         1         1         1         1         1
         1         1         1         1         1         1         1         1
         1         1         1         1         1         1         1         1
         1         1         1         1         1         1         1         1
         1         1         1         1         1         1         1         1
         1         1         1         1         1         1         1         1
         1         1         1         1         1         1         1         1
         1         1         1         1         1         1         1         1
         1         1         1         1         1         1         1         1
         1         1         1         1         1         1         1         1
         1         1         1         1         1         1         1         1
         1         1         1         1         1         1         1         1
         1         1         1         1         1         1         1         1
         1         1         1         1         1         1         1         1
         1         1         1         1         1         1         1         1
         1         1         1         1         1         1         1         1
         1         1         1         1         1         1         1         1
         1         1         1         1         1         1         1         1
         1         1         1         1         1         1         1         1
         1         1         1         1         1         1         1         1
         1         1         1         1         1         1         1         1
         1         1         1         1         1         1         1         1
         1         1         1         1         1         1         1         1
         1         1         1         1         1         1         1         1
         1         1         1         1         1         1         1         1
         1         1         1         1         1         1         1         1
         1         1         1         1         1         1         1         1
         1         1         1         1         1         1         1         1
         1         1         1         1         1         1         1         1
         1         1         1         1         1         1         1         1
         1         1         1         1         1         1         1         1
         1         1         1         1         1         1         1         1
         1         1         1         1         1         1         1         1
         1         1         1         1         1         1         1         1
         1         1         1         1         1         1         1         1
         1         1         1         1         1         1         1         1
         1         1         1         1         1         1         1         1
         1         1         1         1         1         1         1         1
         1         1         1         1         1         1         1         1
         1         1         1         1         1         1         1         1
         1         1         1         1         1         1         1         1
         1         1         1         1         1         1         1         1
         1         1         1         1         1         1         1         1
         1         1         1         1         1         1         1         1
         1         1         1         1         1         1         1         1
         1         1         1         1         1         1         1         1
         1         1         1         1         1         1         1         1
         1         1         1         1         1         1         1         1
         1         1         1         1         1         1         1         1
         1         1         1         1         1         1         1         1
         1         1         1         1         1         1         1         1
         1         1         1         1         1         1         1         1
         1         1         1         1         1         1         1         1
         1         1         1         1         1         1         1         1
         1         1         1         1         1         1         1         1
         1         1         1         1         1         1         1         1
         1         1         1         1         1         1         1         1
         1         1         1         1         1         1         1         1
         1         1         1         1         1         1         1         1
         1         1         1         1         1         1         1         1
         1         1         1         1         1         1         1         1
         1         1         1         1         1         1         1         1
         1         1         1         1         1         1         1         1
         1         1         1         1         1         1         1         1
         1         1         1         1         1         1         1         1
         1         1         1         1         1         1         1         1
         1         1         1         1         1         1         1         1
         1         1         1         1         1         1         1         1
         1         1         1         1         1         1         1         1
         1         1         1         1         1         1         1         1
         1         1         1         1         1         1         1         1
         1         1         1         1         1         1         1         1
         1         1         1         1         1         1         1         1
         1         1         1         1         1         1         1         1
         1         1         1         1         1         1         1         1
         1         1         1         1         1         1         1         1
         1         1         1         1         1         1         1         1
         1         1         1         1         1         1         1         1
         1         1         1         1         1         1         1         1
         1         1         1         1         1         1         1         1
         1         1         1         1         1         1         1         1
         1         1         1         1         1         1         1         1
         1         1         1         1         1         1         1         1
         1         1         1         1         1         1         1         1
         1         1         1         1         1         1         1         1
         1         1         1         1         1         1         1         1
         1         1         1         1         1         1         1         1
         1         1         1         1         1         1         1         1
         1         1         1         1         1         1         1         1
         1         1         1         1         1         1         1         1
         1         1         1         1         1         1         1         1
         1         1         1         1         1         1         1         1
         1         1         1         1         1         1         1         1
         1         1         1         1         1         1         1         1
         1         1         1         1         1         1         1         1
         1         1         1         1         1         1         1         1
         1         1         1         1         1         1         1         1
         1         1         1         1         1         1         1         1
         1         1         1         1         1         1         1         1
         1         1         1         1         1         1         1         1
         1         1         1         1         1         1         1         1
         1         1         1         1         1         1         1         1
         1         1         1         1         1         1         1         1
         1         1         1         1         1         1         1         1
         1         1         1         1         1         1         1         1
         1         1         1         1         1         1         1         1
         1         1         1         1         1         1         1         1
         1         1         1         1         1         1         1         1
         1         1         1         1         1         1         1         1
         1         1         1         1         1         1         1         1
         1         1         1         1         1         1         1         1
         1         1         1         1         1         1         1         1
         1         1         1         1         1         1         1         1
         1         1         1         1         1         1         1         1
         1         1         1         1         1         1         1         1
         1         1         1         1         1         1         1         1
         1         1         1         1         1         1         1         1
         1         1         1         1         1         1         1         1
         1         1         1         1         1         1         1         1
         1         1         1         1         1         1         1         1
         1         1         1         1         1         1         1         1
         1         1         1         1         1         1         1         1
         1         1         1         1         1         1         1         1
         1         1         1         1         1         1         1         1
         1         1         1         1         1         1         1         1
         1         1         1         1         1         1         1         1
         1         1         1         1         1         1         1         1
         1         1         1         1         1         1         1         1
         1         1         1         1         1         1         1         1
         1         1         1         1         1         1         1         1
         1         1         1         1         1         1         1         1
         1         1         1         1         1         1         1         1
         1         1         1         1         1         1         1         1
         1         1         1         1         1         1         1         1
         1         1         1         1         1         1         1         1
         1         1         1         1         1         1         1         1
         1         1         1         1         1         1         1         1
         1         1         1         1         1         1         1         1
         1         1         1         1         1         1         1         1
         1         1         1         1         1         1         1         1
         1         1         1         1         1         1         1         1
         1         1         1         1         1         1         1         1
         1         1         1         1         1         1         1         1
         1         1         1         1         1         1         1         1
         1         1         1         1         1         1         1         1
         1         1         1         1         1         1         1         1
         1         1         1         1         1         1         1         1
         1         1         1         1         1         1         1         1
         1         1         1         1         1         1         1         1
         1         1         1         1         1         1         1         1
         1         1         1         1         1         1         1         1
         1         1         1         1         1         1         1         1
         1         1         1         1         1         1         1         1
         1         1         1         1         1         1         1         1
         1         1         1         1         1         1         1         1
         1         1         1         1         1         1         1         1
         1         1         1         1         1         1         1         1
         1         1         1         1         1         1         1         1
         1         1         1         1         1         1         1         1
         1         1         1         1         1         1         1         1
         1         1         1         1         1         1         1         1
         1         1         1         1         1         1         1         1
         1         1         1         1         1         1         1         1
         1         1         1         1         1         1         1         1
         1         1         1         1         1         1         1         1
         1         1         1         1         1         1         1         1
         1         1         1         1         1         1         1         1
         1         1         1         1         1         1         1         1
         1         1         1         1         1         1         1         1
         1         1         1         1         1         1         1         1
         1         1         1         1         1         1         1         1
         1         1         1         1         1         1         1         1
         1         1         1         1         1         1         1         1
         1         1         1         1         1         1         1         1
         1         1         1         1         1         1         1         1
         1         1         1         1         1         1         1         1
         1         1         1         1         1         1         1         1
         1         1         1         1         1         1         1         1
         1         1         1         1         1         1         1         1
         1         1         1         1         1         1         1         1
         1         1         1         1         1         1         1         1
         1         1         1         1         1         1         1         1
         1         1         1         1         1         1         1         1
         1         1         1         1         1         1         1         1
         1         1         1         1         1         1         1         1
         1         1         1         1         1         1         1         1
         1         1         1         1         1         1         1         1
         1         1         1         1         1         1         1         1
         1         1         1         1         1         1         1         1
         1         1         1         1         1         1         1         1
         1         1         1         1         1         1         1         1
         1         1         1         1         1         1         1         1
         1         1         1         1         1         1         1         1
         1         1         1         1         1         1         1         1
         1         1         1         1         1         1         1         1
         1         1         1         1         1         1         1         1
         1         1         1         1         1         1         1         1
         1         1         1         1         1         1         1         1
         1         1         1         1         1         1         1         1
         1         1         1         1         1         1         1         1
         1         1         1         1         1         1         1         1
         1         1         1         1         1         1         1         1
         1         1         1         1         1         1         1         1
         1         1         1         1         1         1         1         1
         1         1         1         1         1         1         1         1
         1         1         1         1         1         1         1         1
         1         1         1         1         1         1         1         1
         1         1         1         1         1         1         1         1
         1         1         1         1         1         1         1         1
         1         1         1         1         1         1         1         1
         1         1         1         1         1         1         1         1
         1         1         1         1         1         1         1         1
         1         1         1         1         1         1         1         1
         1         1         1         1         1         1         1         1
         1         1         1         1         1         1         1         1
         1         1         1         1         1         1         1         1
         1         1         1         1         1         1         1         1
         1         1         1         1         1         1         1         1
         1         1         1         1         1         1         1         1
         1         1         1         1         1         1         1         1
         1         1         1         1         1         1         1         1
         1         1         1         1         1         1         1         1
         1         1         1         1         1         1         1         1
         1         1         1         1         1         1         1         1
         1         1         1         1         1         1         1         1
         1         1         1         1         1         1         1         1
         1         1         1         1         1         1         1         1
         1         1         1         1         1         1         1         1
         1         1         1         1         1         1         1         1
         1         1         1         1         1         1         1         1
         1         1         1         1         1         1         1         1
         1         1         1         1         1         1         1         1
         1         1         1         1         1         1         1         1
         1         1         1         1         1         1         1         1
         1         1         1         1         1         1         1         1
         1         1         1         1         1         1         1         1
         1         1         1         1         1         1         1         1
         1         1         1         1         1         1         1         1
         1         1         1         1         1         1         1         1
         1         1         1         1         1         1         1         1
         1         1         1         1         1         1         1         1
         1         1         1         1         1         1         1         1
         1         1         1         1         1         1         1         1
         1         1         1         1         1         1         1         1
         1         1         1         1         1         1         1         1
         1         1         1         1         1         1         1         1
         1         1         1         1         1         1         1         1
         1         1         1         1         1         1         1         1
         1         1         1         1         1         1         1         1
         1         1         1         1         1         1         1         1
         1         1         1         1         1         1         1         1
         1         1         1         1         1         1         1         1
         1         1         1         1         1         1         1         1
         1         1         1         1         1         1         1         1
         1         1         1         1         1         1         1         1
         1         1         1         1         1         1         1         1
         1         1         1         1         1         1         1         1
         1         1         1         1         1         1         1         1
         1         1         1         1         1         1         1         1
         1         1         1         1         1         1         1         1
         1         1         1         1         1         1         1         1
         1         1         1         1         1         1         1         1
         1         1         1         1         1         1         1         1
         1         1         1         1         1         1         1         1
         1         1         1         1         1         1         1         1
         1         1         1         1         1         1         1         1
         1         1         1         1         1         1         1         1
         1         1         1         1         1         1         1         1
         1         1         1         1         1         1         1         1
         1         1         1         1         1         1         1         1
         1         1         1         1         1         1         1         1
         1         1         1         1         1         1         1         1
         1         1         1         1         1         1         1         1
         1         1         1         1         1         1         1         1
         1         1         1         1         1         1         1         1
         1         1         1         1         1         1         1         1
         1         1         1         1         1         1         1         1
         1         1         1         1         1         1         1         1
         1         1         1         1         1         1         1         1
         1         1         1         1         1         1         1         1
         1         1         1         1         1         1         1         1
         1         1         1         1         1         1         1         1
         1         1         1         1         1         1         1         1
         1         1         1         1         1         1         1         1
         1         1         1         1         1         1         1         1
         1         1         1         1         1         1         1         1
         1         1         1         1         1         1         1         1
         1         1         1         1         1         1         1         1
         1         1         1         1         1         1         1         1
         1         1         1         1         1         1         1         1
         1         1         1         1         1         1         1         1
         1         1         1         1         1         1         1         1
         1         1         1         1         1         1         1         1
         1         1         1         1         1         1         1         1
         1         1         1         1         1         1         1         1
         1         1         1         1         1         1         1         1
         1         1         1         1         1         1         1         1
         1         1         1         1         1         1         1         1
         1         1         1         1         1         1         1         1
         1         1         1         1         1         1         1         1
         1         1         1         1         1         1         1         1
         1         1         1         1         1         1         1         1
         1         1         1         1         1         1         1         1
         1         1         1         1         1         1         1         1
         1         1         1         1         1         1         1         1
         1         1         1         1         1         1         1         1
         1         1         1         1         1         1         1         1
         1         1         1         1         1         1         1         1
         1         1         1         1         1         1         1         1
         1         1         1         1         1         1         1         1
         1         1         1         1         1         1         1         1
         1         1         1         1         1         1         1         1
         1         1         1         1         1         1         1         1
         1         1         1         1         1         1         1         1
         1         1         1         1         1         1         1         1
         1         1         1         1         1         1         1         1
         1         1         1         1         1         1         1         1
         1         1         1         1         1         1         1         1
         1         1         1         1         1         1         1         1
         1         1         1         1         1         1         1         1
         1         1         1         1         1         1         1         1
         1         1         1         1         1         1         1         1
         1         1         1         1         1         1         1         1
         1         1         1         1         1         1         1         1
         1         1         1         1         1         1         1         1
         1         1         1         1         1         1         1         1
         1         1         1         1         1         1         1         1
         1         1         1         1         1         1         1         1
         1         1         1         1         1         1         1         1
         1         1         1         1         1         1         1         1
         1         1         1         1         1         1         1         1
         1         1         1         1         1         1         1         1
         1         1         1         1         1         1         1         1
         1         1         1         1         1         1         1         1
         1         1         1         1         1         1         1         1
         1         1         1         1         1         1         1         1
         1         1         1         1         1         1         1         1
         1         1         1         1         1         1         1         1
         1         1         1         1         1         1         1         1
         1         1         1         1         1         1         1         1
         1         1         1         1         1         1         1         1
         1         1         1         1         1         1         1         1
         1         1         1         1         1         1         1         1
         1         1         1         1         1         1         1         1
         1         1         1         1         1         1         1         1
         1         1         1         1         1         1         1         1
         1         1         1         1         1         1         1         1
         1         1         1         1         1         1         1         1
         1         1         1         1         1         1         1         1
         1         1         1         1         1         1         1         1
         1         1         1         1         1         1         1         1
         1         1         1         1         1         1         1         1
         1         1         1         1         1         1         1         1
         1         1         1         1         1         1         1         1
         1         1         1         1         1         1         1         1
         1         1         1         1         1         1         1         1
         1         1         1         1         1         1         1         1
         1         1         1         1         1         1         1         1
         1         1         1         1         1         1         1         1
         1         1         1         1         1         1         1         1
         1         1         1         1         1         1         1         1
         1         1         1         1         1         1         1         1
         1         1         1         1         1         1         1         1
         1         1         1         1         1         1         1         1
         1         1         1         1         1         1         1         1
         1         1         1         1         1         1         1         1
         1         1         1         1         1         1         1         1
         1         1         1         1         1         1         1         1
         1         1         1         1         1         1         1         1
         1         1         1         1         1         1         1         1
         1         1         1         1         1         1         1         1
         1         1         1         1         1         1         1         1
         1         1         1         1         1         1         1         1
         1         1         1         1         1         1         1         1
         1         1         1         1         1         1         1         1
         1         1         1         1         1         1         1         1
         1         1         1         1         1         1         1         1
         1         1         1         1         1         1         1         1
         1         1         1         1         1         1         1         1
         1         1         1         1         1         1         1         1
         1         1         1         1         1         1         1         1
         1         1         1         1         1         1         1         1
         1         1         1         1         1         1         1         1
         1         1         1         1         1         1         1         1
         1         1         1         1         1         1         1         1
         1         1         1         1         1         1         1         1
         1         1         1         1         1         1         1         1
         1         1         1         1         1         1         1         1
         1         1         1         1         1         1         1         1
         1         1         1         1         1         1         1         1
         1         1         1         1         1         1         1         1
         1         1         1         1         1         1         1         1
         1         1         1         1         1         1         1         1
         1         1         1         1         1         1         1         1
         1         1         1         1         1         1         1         1
         1         1         1         1         1         1         1         1
         1         1         1         1         1         1         1         1
         1         1         1         1         1         1         1         1
         1         1         1         1         1         1         1         1
         1         1         1         1         1         1         1         1
         1         1         1         1         1         1         1         1
         1         1         1         1         1         1         1         1
         1         1         1         1         1         1         1         1
         1         1         1         1         1         1         1         1
         1         1         1         1         1         1         1         1
         1         1         1         1         1         1         1         1
         1         1         1         1         1         1         1         1
         1         1         1         1         1         1         1         1
         1         1         1         1         1         1         1         1
         1         1         1         1         1         1         1         1
         1         1         1         1         1         1         1         1
         1         1         1         1         1         1         1         1
         1         1         1         1         1         1         1         1
         1         1         1         1         1         1         1         1
         1         1         1         1         1         1         1         1
         1         1         1         1         1         1         1         1
         1         1         1         1         1         1         1         1
         1         1         1         1         1         1         1         1
         1         1         1         1         1         1         1         1
         1         1         1         1         1         1         1         1
         1         1         1         1         1         1         1         1
         1         1         1         1         1         1         1         1
         1         1         1         1         1         1         1         1
         1         1         1         1         1         1         1         1
         1         1         1         1         1         1         1         1
         1         1         1         1         1         1         1         1
         1         1         1         1         1         1         1         1
         1         1         1         1         1         1         1         1
         1         1         1         1         1         1         1         1
         1         1         1         1         1         1         1         1
         1         1         1         1         1         1         1         1
         1         1         1         1         1         1         1         1
         1         1         1         1         1         1         1         1
         1         1         1         1         1         1         1         1
         1         1         1         1         1         1         1         1
         1         1         1         1         1         1         1         1
         1         1         1         1         1         1         1         1
         1         1         1         1         1         1         1         1
         1         1         1         1         1         1         1         1
         1         1         1         1         1         1         1         1
         1         1         1         1         1         1         1         1
         1         1         1         1         1         1         1         1
         1         1         1         1         1         1         1         1
         1         1         1         1         1         1         1         1
         1         1         1         1         1         1         1         1
         1         1         1         1         1         1         1         1
         1         1         1         1         1         1         1         1
         1         1         1         1         1         1         1         1
         1         1         1         1         1         1         1         1
         1         1         1         1         1         1         1         1
         1         1         1         1         1         1         1         1
         1         1         1         1         1         1         1         1
         1         1         1         1         1         1         1         1
         1         1         1         1         1         1         1         1
         1         1         1         1         1         1         1         1
         1         1         1         1         1         1         1         1
         1         1         1         1         1         1         1         1
         1         1         1         1         1         1         1         1
         1         1         1         1         1         1         1         1
         1         1         1         1         1         1         1         1
         1         1         1         1         1         1         1         1
         1         1         1         1         1         1         1         1
         1         1         1         1         1         1         1         1
         1         1         1         1         1         1         1         1
         1         1         1         1         1         1         1         1
         1         1         1         1         1         1         1         1
         1         1         1         1         1         1         1         1
         1         1         1         1         1         1         1         1
         1         1         1         1         1         1         1         1
         1         1         1         1         1         1         1         1
         1         1         1         1         1         1         1         1
         1         1         1         1         1         1         1         1
         1         1         1         1         1         1         1         1
         1         1         1         1         1         1         1         1
         1         1         1         1         1         1         1         1
         1         1         1         1         1         1         1         1
         1         1         1         1         1         1         1         1
         1         1         1         1         1         1         1         1
         1         1         1         1         1         1         1         1
         1         1         1         1         1         1         1         1
         1         1         1         1         1         1         1         1
         1         1         1         1         1         1         1         1
         1         1         1         1         1         1         1         1
         1         1         1         1         1         1         1         1
         1         1         1         1         1         1         1         1
         1         1         1         1         1         1         1         1
         1         1         1         1         1         1         1         1
         1         1         1         1         1         1         1         1
         1         1         1         1         1         1         1         1
         1         1         1         1         1         1         1         1
         1         1         1         1         1         1         1         1
         1         1         1         1         1         1         1         1
         1         1         1         1         1         1         1         1
         1         1         1         1         1         1         1         1
         1         1         1         1         1         1         1         1
         1         1         1         1         1         1         1         1
         1         1         1         1         1         1         1         1
         1         1         1         1         1         1         1         1
         1         1         1         1         1         1         1         1
         1         1         1         1         1         1         1         1
         1         1         1         1         1         1         1         1
         1         1         1         1         1         1         1         1
         1         1         1         1         1         1         1         1
         1         1         1         1         1         1         1         1
         1         1         1         1         1         1         1         1
         1         1         1         1         1         1         1         1
         1         1         1         1         1         1         1         1
         1         1         1         1         1         1         1         1
         1         1         1         1         1         1         1         1
         1         1         1         1         1         1         1         1
         1         1         1         1         1         1         1         1
         1         1         1         1         1         1         1         1
         1         1         1         1         1         1         1         1
         1         1         1         1         1         1         1         1
         1         1         1         1         1         1         1         1
         1         1         1         1         1         1         1         1
         1         1         1         1         1         1         1         1
         1         1         1         1         1         1         1         1
         1         1         1         1         1         1         1         1
         1         1         1         1         1         1         1         1
         1         1         1         1         1         1         1         1
         1         1         1         1         1         1         1         1
         1         1         1         1         1         1         1         1
         1         1         1         1         1         1         1         1
         1         1         1         1         1         1         1         1
         1         1         1         1         1         1         1         1
         1         1         1         1         1         1         1         1
         1         1         1         1         1         1         1         1
         1         1         1         1         1         1         1         1
         1         1         1         1         1         1         1         1
         1         1         1         1         1         1         1         1
         1         1         1         1         1         1         1         1
         1         1         1         1         1         1         1         1
         1         1         1         1         1         1         1         1
         1         1         1         1         1         1         1         1
         1         1         1         1         1         1         1         1
         1         1         1         1         1         1         1         1
         1         1         1         1         1         1         1         1
         1         1         1         1         1         1         1         1
         1         1         1         1         1         1         1         1
         1         1         1         1         1         1         1         1
         1         1         1         1         1         1         1         1
         1         1         1         1         1         1         1         1
         1         1         1         1         1         1         1         1
         1         1         1         1         1         1         1         1
         1         1         1         1         1         1         1         1
         1         1         1         1         1         1         1         1
         1         1         1         1         1         1         1         1
         1         1         1         1         1         1         1         1
         1         1         1         1         1         1         1         1
         1         1         1         1         1         1         1         1
         1         1         1         1         1         1         1         1
         1         1         1         1         1         1         1         1
         1         1         1         1         1         1         1         1
         1         1         1         1         1         1         1         1
         1         1         1         1         1         1         1         1
         1         1         1         1         1         1         1         1
         1         1         1         1         1         1         1         1
         1         1         1         1         1         1         1         1
         1         1         1         1         1         1         1         1
         1         1         1         1         1         1         1         1
         1         1         1         1         1         1         1         1
         1         1         1         1         1         1         1         1
         1         1         1         1         1         1         1         1
         1         1         1         1         1         1         1         1
         1         1         1         1         1         1         1         1
         1         1         1         1         1         1         1         1
         1         1         1         1         1         1         1         1
         1         1         1         1         1         1         1         1
         1         1         1         1         1         1         1         1
         1         1         1         1         1         1         1         1
         1         1         1         1         1         1         1         1
         1         1         1         1         1         1         1         1
         1         1         1         1         1         1         1         1
         1         1         1         1         1         1         1         1
         1         1         1         1         1         1         1         1
         1         1         1         1         1         1         1         1
         1         1         1         1         1         1         1         1
         1         1         1         1         1         1         1         1
         1         1         1         1         1         1         1         1
         1         1         1         1         1         1         1         1
         1         1         1         1         1         1         1         1
         1         1         1         1         1         1         1         1
         1         1         1         1         1         1         1         1
         1         1         1         1         1         1         1         1
         1         1         1         1         1         1         1         1
         1         1         1         1         1         1         1         1
         1         1         1         1         1         1         1         1
         1         1         1         1         1         1         1         1
         1         1         1         1         1         1         1         1
         1         1         1         1         1         1         1         1
         1         1         1         1         1         1         1         1
         1         1         1         1         1         1         1         1
         1         1         1         1         1         1         1         1
         1         1         1         1         1         1         1         1
         1         1         1         1         1         1         1         1
         1         1         1         1         1         1         1         1
         1         1         1         1         1         1         1         1
         1         1         1         1         1         1         1         1
         1         1         1         1         1         1         1         1
         1         1         1         1         1         1         1         1
         1         1         1         1         1         1         1         1
         1         1         1         1         1         1         1         1
         1         1         1         1         1         1         1         1
         1         1         1         1         1         1         1         1
         1         1         1         1         1         1         1         1
         1         1         1         1         1         1         1         1
         1         1         1         1         1         1         1         1
         1         1         1         1         1         1         1         1
         1         1         1         1         1         1         1         1
         1         1         1         1         1         1         1         1
         1         1         1         1         1         1         1         1
         1         1         1         1         1         1         1         1
         1         1         1         1         1         1         1         1
         1         1         1         1         1         1         1         1
         1         1         1         1         1         1         1         1
         1         1         1         1         1         1         1         1
         1         1         1         1         1         1         1         1
         1         1         1         1         1         1         1         1
         1         1         1         1         1         1         1         1
         1         1         1         1         1         1         1         1
         1         1         1         1         1         1         1         1
         1         1         1         1         1         1         1         1
         1         1         1         1         1         1         1         1
         1         1         1         1         1         1         1         1
         1         1         1         1         1         1         1         1
         1         1         1         1         1         1         1         1
         1         1         1         1         1         1         1         1
         1         1         1         1         1         1         1         1
         1         1         1         1         1         1         1         1
         1         1         1         1         1         1         1         1
         1         1         1         1         1         1         1         1
         1         1         1         1         1         1         1         1
         1         1         1         1         1         1         1         1
         1         1         1         1         1         1         1         1
         1         1         1         1         1         1         1         1
         1         1         1         1         1         1         1         1
         1         1         1         1         1         1         1         1
         1         1         1         1         1         1         1         1
         1         1         1         1         1         1         1         1
         1         1         1         1         1         1         1         1
         1         1         1         1         1         1         1         1
         1         1         1         1         1         1         1         1
         1         1         1         1         1         1         1         1
         1         1         1         1         1         1         1         1
         1         1         1         1         1         1         1         1
         1         1         1         1         1         1         1         1
         1         1         1         1         1         1         1         1
         1         1         1         1         1         1         1         1
         1         1         1         1         1         1         1         1
         1         1         1         1         1         1         1         1
         1         1         1         1         1         1         1         1
         1         1         1         1         1         1         1         1
         1         1         1         1         1         1         1         1
         1         1         1         1         1         1         1         1
         1         1         1         1         1         1         1         1
         1         1         1         1         1         1         1         1
         1         1         1         1         1         1         1         1
         1         1         1         1         1         1         1         1
         1         1         1         1         1         1         1         1
         1         1         1         1         1         1         1         1
         1         1         1         1         1         1         1         1
         1         1         1         1         1         1         1         1
         1         1         1         1         1         1         1         1
         1         1         1         1         1         1         1         1
         1         1         1         1         1         1         1         1
         1         1         1         1         1         1         1         1
         1         1         1         1         1         1         1         1
         1         1         1         1         1         1         1         1
         1         1         1         1         1         1         1         1
         1         1         1         1         1         1         1         1
         1         1         1         1         1         1         1         1
         1         1         1         1         1         1         1         1
         1         1         1         1         1         1         1         1
         1         1         1         1         1         1         1         1
         1         1         1         1         1         1         1         1
         1         1         1         1         1         1         1         1
         1         1         1         1         1         1         1         1
         1         1         1         1         1         1         1         1
         1         1         1         1         1         1         1         1
         1         1         1         1         1         1         1         1
         1         1         1         1         1         1         1         1
         1         1         1         1         1         1         1         1
         1         1         1         1         1         1         1         1
         1         1         1         1         1         1         1         1
         1         1         1         1         1         1         1         1
         1         1         1         1         1         1         1         1
         1         1         1         1         1         1         1         1
         1         1         1         1         1         1         1         1
         1         1         1         1         1         1         1         1
         1         1         1         1         1         1         1         1
         1         1         1         1         1         1         1         1
         1         1         1         1         1         1         1         1
         1         1         1         1         1         1         1         1
         1         1         1         1         1         1         1         1
         1         1         1         1         1         1         1         1
         1         1         1         1         1         1         1         1
         1         1         1         1         1         1         1         1
         1         1         1         1         1         1         1         1
         1         1         1         1         1         1         1         1
         1         1         1         1         1         1         1         1
         1         1         1         1         1         1         1         1
         1         1         1         1         1         1         1         1
         1         1         1         1         1         1         1         1
         1         1         1         1         1         1         1         1
         1         1         1         1         1         1         1         1
         1         1         1         1         1         1         1         1
         1         1         1         1         1         1         1         1
         1         1         1         1         1         1         1         1
         1         1         1         1         1         1         1         1
         1         1         1         1         1         1         1         1
         1         1         1         1         1         1         1         1
         1         1         1         1         1         1         1         1
         1         1         1         1         1         1         1         1
         1         1         1         1         1         1         1         1
         1         1         1         1         1         1         1         1
         1         1         1         1         1         1         1         1
         1         1         1         1         1         1         1         1
         1         1         1         1         1         1         1         1
         1         1         1         1         1         1         1         1
         1         1         1         1         1         1         1         1
         1         1         1         1         1         1         1         1
         1         1         1         1         1         1         1         1
         1         1         1         1         1         1         1         1
         1         1         1         1         1         1         1         1
         1         1         1         1         1         1         1         1
         1         1         1         1         1         1         1         1
         1         1         1         1         1         1         1         1
         1         1         1         1         1         1         1         1
         1         1         1         1         1         1         1         1
         1         1         1         1         1         1         1         1
         1         1         1         1         1         1         1         1
         1         1         1         1         1         1         1         1
         1         1         1         1         1         1         1         1
         1         1         1         1         1         1         1         1
         1         1         1         1         1         1         1         1
         1         1         1         1         1         1         1         1
         1         1         1         1         1         1         1         1
         1         1         1         1         1         1         1         1
         1         1         1         1         1         1         1         1
         1         1         1         1         1         1         1         1
         1         1         1         1         1         1         1         1
         1         1         1         1         1         1         1         1
         1         1         1         1         1         1         1         1
         1         1         1         1         1         1         1         1
         1         1         1         1         1         1         1         1
         1         1         1         1         1         1         1         1
         1         1         1         1         1         1         1         1
         1         1         1         1         1         1         1         1
         1         1         1         1         1         1         1         1
         1         1         1         1         1         1         1         1
         1         1         1         1         1         1         1         1
         1         1         1         1         1         1         1         1
         1         1         1         1         1         1         1         1
         1         1         1         1         1         1         1         1
         1         1         1         1         1         1         1         1
         1         1         1         1         1         1         1         1
         1         1         1         1         1         1         1         1
         1         1         1         1         1         1         1         1
         1         1         1         1         1         1         1         1
         1         1         1         1         1         1         1         1
         1         1         1         1         1         1         1         1
         1         1         1         1         1         1         1         1
         1         1         1         1         1         1         1         1
         1         1         1         1         1         1         1         1
         1         1         1         1         1         1         1         1
         1         1         1         1         1         1         1         1
         1         1         1         1         1         1         1         1
         1         1         1         1         1         1         1         1
         1         1         1         1         1         1         1         1
         1         1         1         1         1         1         1         1
         1         1         1         1         1         1         1         1
         1         1         1         1         1         1         1         1
         1         1         1         1         1         1         1         1
         1         1         1         1         1         1         1         1
         1         1         1         1         1         1         1         1
         1         1         1         1         1         1         1         1
         1         1         1         1         1         1         1         1
         1         1         1         1         1         1         1         1
         1         1         1         1         1         1         1         1
         1         1         1         1         1         1         1         1
         1         1         1         1         1         1         1         1
         1         1         1         1         1         1         1         1
         1         1         1         1         1         1         1         1
         1         1         1         1         1         1         1         1
         1         1         1         1         1         1         1         1
         1         1         1         1         1         1         1         1
         1         1         1         1         1         1         1         1
         1         1         1         1         1         1         1         1
         1         1         1         1         1         1         1         1
         1         1         1         1         1         1         1         1
         1         1         1         1         1         1         1         1
         1         1         1         1         1         1         1         1
         1         1         1         1         1         1         1         1
         1         1         1         1         1         1         1         1
         1         1         1         1         1         1         1         1
         1         1         1         1         1         1         1         1
         1         1         1         1         1         1         1         1
         1         1         1         1         1         1         1         1
         1         1         1         1         1         1         1         1
         1         1         1         1         1         1         1         1
         1         1         1         1         1         1         1         1
         1         1         1         1         1         1         1         1
         1         1         1         1         1         1         1         1
         1         1         1         1         1         1         1         1
         1         1         1         1         1         1         1         1
         1         1         1         1         1         1         1         1
         1         1         1         1         1         1         1         1
         1         1         1         1         1         1         1         1
         1         1         1         1         1         1         1         1
         1         1         1         1         1         1         1         1
         1         1         1         1         1         1         1         1
         1         1         1         1         1         1         1         1
         1         1         1         1         1         1         1         1
         1         1         1         1         1         1         1         1
         1         1         1         1         1         1         1         1
         1         1         1         1         1         1         1         1
         1         1         1         1         1         1         1         1
         1         1         1         1         1         1         1         1
         1         1         1         1         1         1         1         1
         1         1         1         1         1         1         1         1
         1         1         1         1         1         1         1         1
         1         1         1         1         1         1         1         1
         1         1         1         1         1         1         1         1
         1         1         1         1         1         1         1         1
         1         1         1         1         1         1         1         1
         1         1         1         1         1         1         1         1
         1         1         1         1         1         1         1         1
         1         1         1         1         1         1         1         1
         1         1         1         1         1         1         1         1
         1         1         1         1         1         1         1         1
         1         1         1         1         1         1         1         1
         1         1         1         1         1         1         1         1
         1         1         1         1         1         1         1         1
         1         1         1         1         1         1         1         1
         1         1         1         1         1         1         1         1
         1         1         1         1         1         1         1         1
         1         1         1         1         1         1         1         1
         1         1         1         1         1         1         1         1
         1         1         1         1         1         1         1         1
         1         1         1         1         1         1         1         1
         1         1         1         1         1         1         1         1
         1         1         1         1         1         1         1         1
         1         1         1         1         1         1         1         1
         1         1         1         1         1         1         1         1
         1         1         1         1         1         1         1         1
         1         1         1         1         1         1         1         1
         1         1         1         1         1         1         1         1
         1         1         1         1         1         1         1         1
         1         1         1         1         1         1         1         1
         1         1         1         1         1         1         1         1
         1         1         1         1         1         1         1         1
         1         1         1         1         1         1         1         1
         1         1         1         1         1         1         1         1
         1         1         1         1         1         1         1         1
         1         1         1         1         1         1         1         1
         1         1         1         1         1         1         1         1
         1         1         1         1         1         1         1         1
         1         1         1         1         1         1         1         1
         1         1         1         1         1         1         1         1
         1         1         1         1         1         1         1         1
         1         1         1         1         1         1         1         1
         1         1         1         1         1         1         1         1
         1         1         1         1         1         1         1         1
         1         1         1         1         1         1         1         1
         1         1         1         1         1         1         1         1
         1         1         1         1         1         1         1         1
         1         1         1         1         1         1         1         1
         1         1         1         1         1         1         1         1
         1         1         1         1         1         1         1         1
         1         1         1         1         1         1         1         1
         1         1         1         1         1         1         1         1
         1         1         1         1         1         1         1         1
         1         1         1         1         1         1         1         1
         1         1         1         1         1         1         1         1
         1         1         1         1         1         1         1         1
         1         1         1         1         1         1         1         1
         1         1         1         1         1         1         1         1
         1         1         1         1         1         1         1         1
         1         1         1         1         1         1         1         1
         1         1         1         1         1         1         1         1
         1         1         1         1         1         1         1         1
         1         1         1         1         1         1         1         1
         1         1         1         1         1         1         1         1
         1         1         1         1         1         1         1         1
         1         1         1         1         1         1         1         1
         1         1         1         1         1         1         1         1
         1         1         1         1         1         1         1         1
         1         1         1         1         1         1         1         1
         1         1         1         1         1         1         1         1
         1         1         1         1         1         1         1         1
         1         1         1         1         1         1         1         1
         1         1         1         1         1         1         1         1
         1         1         1         1         1         1         1         1
         1         1         1         1         1         1         1         1
         1         1         1         1         1         1         1         1
         1         1         1         1         1         1         1         1
         1         1         1         1         1         1         1         1
         1         1         1         1         1         1         1         1
         1         1         1         1         1         1         1         1
         1         1         1         1         1         1         1         1
         1         1         1         1         1         1         1         1
         1         1         1         1         1         1         1         1
         1         1         1         1         1         1         1         1
         1         1         1         1         1         1         1         1
         1         1         1         1         1         1         1         1
         1         1         1         1         1         1         1         1
         1         1         1         1         1         1         1         1
         1         1         1         1         1         1         1         1
         1         1         1         1         1         1         1         1
         1         1         1         1         1         1         1         1
         1         1         1         1         1         1         1         1
         1         1         1         1         1         1         1         1
         1         1         1         1         1         1         1         1
         1         1         1         1         1         1         1         1
         1         1         1         1         1         1         1         1
         1         1         1         1         1         1         1         1
         1         1         1         1         1         1         1         1
         1         1         1         1         1         1         1         1
         1         1         1         1         1         1         1         1
         1         1         1         1         1         1         1         1
         1         1         1         1         1         1         1         1
         1         1         1         1         1         1         1         1
         1         1         1         1         1         1         1         1
         1         1         1         1         1         1         1         1
         1         1         1         1         1         1         1         1
         1         1         1         1         1         1         1         1
         1         1         1         1         1         1         1         1
         1         1         1         1         1         1         1         1
         1         1         1         1         1         1         1         1
         1         1         1         1         1         1         1         1
         1         1         1         1         1         1         1         1
         1         1         1         1         1         1         1         1
         1         1         1         1         1         1         1         1
         1         1         1         1         1         1         1         1
         1         1         1         1         1         1         1         1
         1         1         1         1         1         1         1         1
         1         1         1         1         1         1         1         1
         1         1         1         1         1         1         1         1
         1         1         1         1         1         1         1         1
         1         1         1         1         1         1         1         1
         1         1         1         1         1         1         1         1
         1         1         1         1         1         1         1         1
         1         1         1         1         1         1         1         1
         1         1         1         1         1         1         1         1
         1         1         1         1         1         1         1         1
         1         1         1         1         1         1         1         1
         1         1         1         1         1         1         1         1
         1         1         1         1         1         1         1         1
         1         1         1         1         1         1         1         1
         1         1         1         1         1         1         1         1
         1         1         1         1         1         1         1         1
         1         1         1         1         1         1         1         1
         1         1         1         1         1         1         1         1
         1         1         1         1         1         1         1         1
         1         1         1         1         1         1         1         1
         1         1         1         1         1         1         1         1
         1         1         1         1         1         1         1         1
         1         1         1         1         1         1         1         1
         1         1         1         1         1         1         1         1
         1         1         1         1         1         1         1         1
         1         1         1         1         1         1         1         1
         1         1         1         1         1         1         1         1
         1         1         1         1         1         1         1         1
         1         1         1         1         1         1         1         1
         1         1         1         1         1         1         1         1
         1         1         1         1         1         1         1         1
         1         1         1         1         1         1         1         1
         1         1         1         1         1         1         1         1
         1         1         1         1         1         1         1         1
         1         1         1         1         1         1         1         1
         1         1         1         1         1         1         1         1
         1         1         1         1         1         1         1         1
         1         1         1         1         1         1         1         1
         1         1         1         1         1         1         1         1
         1         1         1         1         1         1         1         1
         1         1         1         1         1         1         1         1
         1         1         1         1         1         1         1         1
         1         1         1         1         1         1         1         1
         1         1         1         1         1         1         1         1
         1         1         1         1         1         1         1         1
         1         1         1         1         1         1         1         1
         1         1         1         1         1         1         1         1
         1         1         1         1         1         1         1         1
         1         1         1         1         1         1         1         1
         1         1         1         1         1         1         1         1
         1         1         1         1         1         1         1         1
         1         1         1         1         1         1         1         1
         1         1         1         1         1         1         1         1
         1         1         1         1         1         1         1         1
         1         1         1         1         1         1         1         1
         1         1         1         1         1         1         1         1
         1         1         1         1         1         1         1         1
         1         1         1         1         1         1         1         1
         1         1         1         1         1         1         1         1
         1         1         1         1         1         1         1         1
         1         1         1         1         1         1         1         1
         1         1         1         1         1         1         1         1
         1         1         1         1         1         1         1         1
         1         1         1         1         1         1         1         1
         1         1         1         1         1         1         1         1
         1         1         1         1         1         1         1         1
         1         1         1         1         1         1         1         1
         1         1         1         1         1         1         1         1
         1         1         1         1         1         1         1         1
         1         1         1         1         1         1         1         1
         1         1         1         1         1         1         1         1
         1         1         1         1         1         1         1         1
         1         1         1         1         1         1         1         1
         1         1         1         1         1         1         1         1
         1         1         1         1         1         1         1         1
         1         1         1         1         1         1         1         1
         1         1         1         1         1         1         1         1
         1         1         1         1         1         1         1         1
         1         1         1         1         1         1         1         1
         1         1         1         1         1         1         1         1
         1         1         1         1         1         1         1         1
         1         1         1         1         1         1         1         1
         1         1         1         1         1         1         1         1
         1         1         1         1         1         1         1         1
         1         1         1         1         1         1         1         1
         1         1         1         1         1         1         1         1
         1         1         1         1         1         1         1         1
         1         1         1         1         1         1         1         1
         1         1         1         1         1         1         1         1
         1         1         1         1         1         1         1         1
         1         1         1         1         1         1         1         1
         1         1         1         1         1         1         1         1
         1         1         1         1         1         1         1         1
         1         1         1         1         1         1         1         1
         1         1         1         1         1         1         1         1
         1         1         1         1         1         1         1         1
         1         1         1         1         1         1         1         1
         1         1         1         1         1         1         1         1
         1         1         1         1         1         1         1         1
         1         1         1         1         1         1         1         1
         1         1         1         1         1         1         1         1
         1         1         1         1         1         1         1         1
         1         1         1         1         1         1         1         1
         1         1         1         1         1         1         1         1
         1         1         1         1         1         1         1         1
         1         1         1         1         1         1         1         1
         1         1         1         1         1         1         1         1
         1         1         1         1         1         1         1         1
         1         1         1         1         1         1         1         1
         1         1         1         1         1         1         1         1
         1         1         1         1         1         1         1         1
         1         1         1         1         1         1         1         1
         1         1         1         1         1         1         1         1
         1         1         1         1         1         1         1         1
         1         1         1         1         1         1         1         1
         1         1         1         1         1         1         1         1
         1         1         1         1         1         1         1         1
         1         1         1         1         1         1         1         1
         1         1         1         1         1         1         1         1
         1         1         1         1         1         1         1         1
         1         1         1         1         1         1         1         1
         1         1         1         1         1         1         1         1
         1         1         1         1         1         1         1         1
         1         1         1         1         1         1         1         1
         1         1         1         1         1         1         1         1
         1         1         1         1         1         1         1         1
         1         1         1         1         1         1         1         1
         1         1         1         1         1         1         1         1
         1         1         1         1         1         1         1         1
         1         1         1         1         1         1         1         1
         1         1         1         1         1         1         1         1
         1         1         1         1         1         1         1         1
         1         1         1         1         1         1         1         1
         1         1         1         1         1         1         1         1
         1         1         1         1         1         1         1         1
         1         1         1         1         1         1         1         1
         1         1         1         1         1         1         1         1
         1         1         1         1         1         1         1         1
         1         1         1         1         1         1         1         1
         1         1         1         1         1         1         1         1
         1         1         1         1         1         1         1         1
         1         1         1         1         1         1         1         1
         1         1         1         1         1         1         1         1
         1         1         1         1         1         1         1         1
         1         1         1         1         1         1         1         1
         1         1         1         1         1         1         1         1
         1         1         1         1         1         1         1         1
         1         1         1         1         1         1         1         1
         1         1         1         1         1         1         1         1
         1         1         1         1         1         1         1         1
         1         1         1         1         1         1         1         1
         1         1         1         1         1         1         1         1
         1         1         1         1         1         1         1         1
         1         1         1         1         1         1         1         1
         1         1         1         1         1         1         1         1
         1         1         1         1         1         1         1         1
         1         1         1         1         1         1         1         1
         1         1         1         1         1         1         1         1
         1         1         1         1         1         1         1         1
         1         1         1         1         1         1         1         1
         1         1         1         1         1         1         1         1
         1         1         1         1         1         1         1         1
         1         1         1         1         1         1         1         1
         1         1         1         1         1         1         1         1
         1         1         1         1         1         1         1         1
         1         1         1         1         1         1         1         1
         1         1         1         1         1         1         1         1
         1         1         1         1         1         1         1         1
         1         1         1         1         1         1         1         1
         1         1         1         1         1         1         1         1
         1         1         1         1         1         1         1         1
         1         1         1         1         1         1         1         1
         1         1         1         1         1         1         1         1
         1         1         1         1         1         1         1         1
         1         1         1         1         1         1         1         1
         1         1         1         1         1         1         1         1
         1         1         1         1         1         1         1         1
         1         1         1         1         1         1         1         1
         1         1         1         1         1         1         1         1
         1         1         1         1         1         1         1         1
         1         1         1         1         1         1         1         1
         1         1         1         1         1         1         1         1
         1         1         1         1         1         1         1         1
         1         1         1         1         1         1         1         1
         1         1         1         1         1         1         1         1
         1         1         1         1         1         1         1         1
         1         1         1         1         1         1         1         1
         1         1         1         1         1         1         1         1
         1         1         1         1         1         1         1         1
         1         1         1         1         1         1         1         1
         1         1         1         1         1         1         1         1
         1         1         1         1         1         1         1         1
         1         1         1         1         1         1         1         1
         1         1         1         1         1         1         1         1
         1         1         1         1         1         1         1         1
         1         1         1         1         1         1         1         1
         1         1         1         1         1         1         1         1
         1         1         1         1         1         1         1         1
         1         1         1         1         1         1         1         1
         1         1         1         1         1         1         1         1
         1         1         1         1         1         1         1         1
         1         1         1         1         1         1         1         1
         1         1         1         1         1         1         1         1
         1         1         1         1         1         1         1         1
         1         1         1         1         1         1         1         1
         1         1         1         1         1         1         1         1
         1         1         1         1         1         1         1         1
         1         1         1         1         1         1         1         1
         1         1         1         1         1         1         1         1
         1         1         1         1         1         1         1         1
         1         1         1         1         1         1         1         1
         1         1         1         1         1         1         1         1
         1         1         1         1         1         1         1         1
         1         1         1         1         1         1         1         1
         1         1         1         1         1         1         1         1
         1         1         1         1         1         1         1         1
         1         1         1         1         1         1         1         1
         1         1         1         1         1         1         1         1
         1         1         1         1         1         1         1         1
         1         1         1         1         1         1         1         1
         1         1         1         1         1         1         1         1
         1         1         1         1         1         1         1         1
         1         1         1         1         1         1         1         1
         1         1         1         1         1         1         1         1
         1         1         1         1         1         1         1         1
         1         1         1         1         1         1         1         1
         1         1         1         1         1         1         1         1
         1         1         1         1         1         1         1         1
         1         1         1         1         1         1         1         1
         1         1         1         1         1         1         1         1
         1         1         1         1         1         1         1         1
         1         1         1         1         1         1         1         1
         1         1         1         1         1         1         1         1
         1         1         1         1         1         1         1         1
         1         1         1         1         1         1         1         1
         1         1         1         1         1         1         1         1
         1         1         1         1         1         1         1         1
         1         1         1         1         1         1         1         1
         1         1         1         1         1         1         1         1
         1         1         1         1         1         1         1         1
         1         1         1         1         1         1         1         1
         1         1         1         1         1         1         1         1
         1         1         1         1         1         1         1         1
         1         1         1         1         1         1         1         1
         1         1         1         1         1         1         1         1
         1         1         1         1         1         1         1         1
         1         1         1         1         1         1         1         1
         1         1         1         1         1         1         1         1
         1         1         1         1         1         1         1         1
         1         1         1         1         1         1         1         1
         1         1         1         1         1         1         1         1
         1         1         1         1         1         1         1         1
         1         1         1         1         1         1         1         1
         1         1         1         1         1         1         1         1
         1         1         1         1         1         1         1         1
         1         1         1         1         1         1         1         1
         1         1         1         1         1         1         1         1
         1         1         1         1         1         1         1         1
         1         1         1         1         1         1         1         1
         1         1         1         1         1         1         1         1
         1         1         1         1         1         1         1         1
         1         1         1         1         1         1         1         1
         1         1         1         1         1         1         1         1
         1         1         1         1         1         1         1         1
         1         1         1         1         1         1         1         1
         1         1         1         1         1         1         1         1
         1         1         1         1         1         1         1         1
         1         1         1         1         1         1         1         1
         1         1         1         1         1         1         1         1
         1         1         1         1         1         1         1         1
         1         1         1         1         1         1         1         1
         1         1         1         1         1         1         1         1
         1         1         1         1         1         1         1         1
         1         1         1         1         1         1         1         1
         1         1         1         1         1         1         1         1
         1         1         1         1         1         1         1         1
         1         1         1         1         1         1         1         1
         1         1         1         1         1         1         1         1
         1         1         1         1         1         1         1         1
         1         1         1         1         1         1         1         1
         1         1         1         1         1         1         1         1
         1         1         1         1         1         1         1         1
         1         1         1         1         1         1         1         1
         1         1         1         1         1         1         1         1
         1         1         1         1         1         1         1         1
         1         1         1         1         1         1         1         1
         1         1         1         1         1         1         1         1
         1         1         1         1         1         1         1         1
         1         1         1         1         1         1         1         1
         1         1         1         1         1         1         1         1
         1         1         1         1         1         1         1         1
         1         1         1         1         1         1         1         1
         1         1         1         1         1         1         1         1
         1         1         1         1         1         1         1         1
         1         1         1         1         1         1         1         1
         1         1         1         1         1         1         1         1
         1         1         1         1         1         1         1         1
         1         1         1         1         1         1         1         1
         1         1         1         1         1         1         1         1
         1         1         1         1         1         1         1         1
         1         1         1         1         1         1         1         1
         1         1         1         1         1         1         1         1
         1         1         1         1         1         1         1         1
         1         1         1         1         1         1         1         1
         1         1         1         1         1         1         1         1
         1         1         1         1         1         1         1         1
         1         1         1         1         1         1         1         1
         1         1         1         1         1         1         1         1
         1         1         1         1         1         1         1         1
         1         1         1         1         1         1         1         1
         1         1         1         1         1         1         1         1
         1         1         1         1         1         1         1         1
         1         1         1         1         1         1         1         1
         1         1         1         1         1         1         1         1
         1         1         1         1         1         1         1         1
         1         1         1         1         1         1         1         1
         1         1         1         1         1         1         1         1
         1         1         1         1         1         1         1         1
         1         1         1         1         1         1         1         1
         1         1         1         1         1         1         1         1
         1         1         1         1         1         1         1         1
         1         1         1         1         1         1         1         1
         1         1         1         1         1         1         1         1
         1         1         1         1         1         1         1         1
         1         1         1         1         1         1         1         1
         1         1         1         1         1         1         1         1
         1         1         1         1         1         1         1         1
         1         1         1         1         1         1         1         1
         1         1         1         1         1         1         1         1
         1         1         1         1         1         1         1         1
         1         1         1         1         1         1         1         1
         1         1         1         1         1         1         1         1
         1         1         1         1         1         1         1         1
         1         1         1         1         1         1         1         1
         1         1         1         1         1         1         1         1
         1         1         1         1         1         1         1         1
         1         1         1         1         1         1         1         1
         1         1         1         1         1         1         1         1
         1         1         1         1         1         1         1         1
         1         1         1         1         1         1         1         1
         1         1         1         1         1         1         1         1
         1         1         1         1         1         1         1         1
         1         1         1         1         1         1         1         1
         1         1         1         1         1         1         1         1
         1         1         1         1         1         1         1         1
         1         1         1         1         1         1         1         1
         1         1         1         1         1         1         1         1
         1         1         1         1         1         1         1         1
         1         1         1         1         1         1         1         1
         1         1         1         1         1         1         1         1
         1         1         1         1         1         1         1         1
         1         1         1         1         1         1         1         1
         1         1         1         1         1         1         1         1
         1         1         1         1         1         1         1         1
         1         1         1         1         1         1         1         1
         1         1         1         1         1         1         1         1
         1         1         1         1         1         1         1         1
         1         1         1         1         1         1         1         1
         1         1         1         1         1         1         1         1
         1         1         1         1         1         1         1         1
         1         1         1         1         1         1         1         1
         1         1         1         1         1         1         1         1
         1         1         1         1         1         1         1         1
         1         1         1         1         1         1         1         1
         1         1         1         1         1         1         1         1
         1         1         1         1         1         1         1         1
         1         1         1         1         1         1         1         1
         1         1         1         1         1         1         1         1
         1         1         1         1         1         1         1         1
         1         1         1         1         1         1         1         1
         1         1         1         1         1         1         1         1
         1         1         1         1         1         1         1         1
         1         1         1         1         1         1         1         1
         1         1         1         1         1         1         1         1
         1         1         1         1         1         1         1         1
         1         1         1         1         1         1         1         1
         1         1         1         1         1         1         1         1
         1         1         1         1         1         1         1         1
         1         1         1         1         1         1         1         1
         1         1         1         1         1         1         1         1
         1         1         1         1         1         1         1         1
         1         1         1         1         1         1         1         1
         1         1         1         1         1         1         1         1
         1         1         1         1         1         1         1         1
         1         1         1         1         1         1         1         1
         1         1         1         1         1         1         1         1
         1         1         1         1         1         1         1         1
         1         1         1         1         1         1         1         1
         1         1         1         1         1         1         1         1
         1         1         1         1         1         1         1         1
         1         1         1         1         1         1         1         1
         1         1         1         1         1         1         1         1
         1         1         1         1         1         1         1         1
         1         1         1         1         1         1         1         1
         1         1         1         1         1         1         1         1
         1         1         1         1         1         1         1         1
         1         1         1         1         1         1         1         1
         1         1         1         1         1         1         1         1
         1         1         1         1         1         1         1         1
         1         1         1         1         1         1         1         1
         1         1         1         1         1         1         1         1
         1         1         1         1         1         1         1         1
         1         1         1         1         1         1         1         1
         1         1         1         1         1         1         1         1
         1         1         1         1         1         1         1         1
         1         1         1         1         1         1         1         1
         1         1         1         1         1         1         1         1
         1         1         1         1         1         1         1         1
         1         1         1         1         1         1         1         1
         1         1         1         1         1         1         1         1
         1         1         1         1         1         1         1         1
         1         1         1         1         1         1         1         1
         1         1         1         1         1         1         1         1
         1         1         1         1         1         1         1         1
         1         1         1         1         1         1         1         1
         1         1         1         1         1         1         1         1
         1         1         1         1         1         1         1         1
         1         1         1         1         1         1         1         1
         1         1         1         1         1         1         1         1
         1         1         1         1         1         1         1         1
         1         1         1         1         1         1         1         1
         1         1         1         1         1         1         1         1
         1         1         1         1         1         1         1         1
         1         1         1         1         1         1         1         1
         1         1         1         1         1         1         1         1
         1         1         1         1         1         1         1         1
         1         1         1         1         1         1         1         1
         1         1         1         1         1         1         1         1
         1         1         1         1         1         1         1         1
         1         1         1         1         1         1         1         1
         1         1         1         1         1         1         1         1
         1         1         1         1         1         1         1         1
         1         1         1         1         1         1         1         1
         1         1         1         1         1         1         1         1
         1         1         1         1         1         1         1         1
         1         1         1         1         1         1         1         1
         1         1         1         1         1         1         1         1
         1         1         1         1         1         1         1         1
         1         1         1         1         1         1         1         1
         1         1         1         1         1         1         1         1
         1         1         1         1         1         1         1         1
         1         1         1         1         1         1         1         1
         1         1         1         1         1         1         1         1
         1         1         1         1         1         1         1         1
         1         1         1         1         1         1         1         1
         1         1         1         1         1         1         1         1
         1         1         1         1         1         1         1         1
         1         1         1         1         1         1         1         1
         1         1         1         1         1         1         1         1
         1         1         1         1         1         1         1         1
         1         1         1         1         1         1         1         1
         1         1         1         1         1         1         1         1
         1         1         1         1         1         1         1         1
         1         1         1         1         1         1         1         1
         1         1         1         1         1         1         1         1
         1         1         1         1         1         1         1         1
         1         1         1         1         1         1         1         1
         1         1         1         1         1         1         1         1
         1         1         1         1         1         1         1         1
         1         1         1         1         1         1         1         1
         1         1         1         1         1         1         1         1
         1         1         1         1         1         1         1         1
         1         1         1         1         1         1         1         1
         1         1         1         1         1         1         1         1
         1         1         1         1         1         1         1         1
         1         1         1         1         1         1         1         1
         1         1         1         1         1         1         1         1
         1         1         1         1         1         1         1         1
         1         1         1         1         1         1         1         1
         1         1         1         1         1         1         1         1
         1         1         1         1         1         1         1         1
         1         1         1         1         1         1         1         1
         1         1         1         1         1         1         1         1
         1         1         1         1         1         1         1         1
         1         1         1         1         1         1         1         1
         1         1         1         1         1         1         1         1
         1         1         1         1         1         1         1         1
         1         1         1         1         1         1         1         1
         1         1         1         1         1         1         1         1
         1         1         1         1         1         1         1         1
         1         1         1         1         1         1         1         1
         1         1         1         1         1         1         1         1
         1         1         1         1         1         1         1         1
         1         1         1         1         1         1         1         1
         1         1         1         1         1         1         1         1
         1         1         1         1         1         1         1         1
         1         1         1         1         1         1         1         1
         1         1         1         1         1         1         1         1
         1         1         1         1         1         1         1         1
         1         1         1         1         1         1         1         1
         1         1         1         1         1         1         1         1
         1         1         1         1         1         1         1         1
         1         1         1         1         1         1         1         1
         1         1         1         1         1         1         1         1
         1         1         1         1         1         1         1         1
         1         1         1         1         1         1         1         1
         1         1         1         1         1         1         1         1
         1         1         1         1         1         1         1         1
         1         1         1         1         1         1         1         1
         1         1         1         1         1         1         1         1
         1         1         1         1         1         1         1         1
         1         1         1         1         1         1         1         1
         1         1         1         1         1         1         1         1
         1         1         1         1         1         1         1         1
         1         1         1         1         1         1         1         1
         1         1         1         1         1         1         1         1
         1         1         1         1         1         1         1         1
         1         1         1         1         1         1         1         1
         1         1         1         1         1         1         1         1
         1         1         1         1         1         1         1         1
         1         1         1         1         1         1         1         1
         1         1         1         1         1         1         1         1
         1         1         1         1         1         1         1         1
         1         1         1         1         1         1         1         1
         1         1         1         1         1         1         1         1
         1         1         1         1         1         1         1         1
         1         1         1         1         1         1         1         1
         1         1         1         1         1         1         1         1
         1         1         1         1         1         1         1         1
         1         1         1         1         1         1         1         1
         1         1         1         1         1         1         1         1
         1         1         1         1         1         1         1         1
         1         1         1         1         1         1         1         1
         1         1         1         1         1         1         1         1
         1         1         1         1         1         1         1         1
         1         1         1         1         1         1         1         1
         1         1         1         1         1         1         1         1
         1         1         1         1         1         1         1         1
         1         1         1         1         1         1         1         1
         1         1         1         1         1         1         1         1
         1         1         1         1         1         1         1         1
         1         1         1         1         1         1         1         1
         1         1         1         1         1         1         1         1
         1         1         1         1         1         1         1         1
         1         1         1         1         1         1         1         1
         1         1         1         1         1         1         1         1
         1         1         1         1         1         1         1         1
         1         1         1         1         1         1         1         1
         1         1         1         1         1         1         1         1
         1         1         1         1         1         1         1         1
         1         1         1         1         1         1         1         1
         1         1         1         1         1         1         1         1
         1         1         1         1         1         1         1         1
         1         1         1         1         1         1         1         1
         1         1         1         1         1         1         1         1
         1         1         1         1         1         1         1         1
         1         1         1         1         1         1         1         1
         1         1         1         1         1         1         1         1
         1         1         1         1         1         1         1         1
         1         1         1         1         1         1         1         1
         1         1         1         1         1         1         1         1
         1         1         1         1         1         1         1         1
         1         1         1         1         1         1         1         1
         1         1         1         1         1         1         1         1
         1         1         1         1         1         1         1         1
         1         1         1         1         1         1         1         1
         1         1         1         1         1         1         1         1
         1         1         1         1         1         1         1         1
         1         1         1         1         1         1         1         1
         1         1         1         1         1         1         1         1
         1         1         1         1         1         1         1         1
         1         1         1         1         1         1         1         1
         1         1         1         1         1         1         1         1
         1         1         1         1         1         1         1         1
         1         1         1         1         1         1         1         1
         1         1         1         1         1         1         1         1
         1         1         1         1         1         1         1         1
         1         1         1         1         1         1         1         1
         1         1         1         1         1         1         1         1
         1         1         1         1         1         1         1         1
         1         1         1         1         1         1         1         1
         1         1         1         1         1         1         1         1
         1         1         1         1         1         1         1         1
         1         1         1         1         1         1         1         1
         1         1         1         1         1         1         1         1
         1         1         1         1         1         1         1         1
         1         1         1         1         1         1         1         1
         1         1         1         1         1         1         1         1
         1         1         1         1         1         1         1         1
         1         1         1         1         1         1         1         1
         1         1         1         1         1         1         1         1
         1         1         1         1         1         1         1         1
         1         1         1         1         1         1         1         1
         1         1         1         1         1         1         1         1
         1         1         1         1         1         1         1         1
         1         1         1         1         1         1         1         1
         1         1         1         1         1         1         1         1
         1         1         1         1         1         1         1         1
         1         1         1         1         1         1         1         1
         1         1         1         1         1         1         1         1
         1         1         1         1         1         1         1         1
         1         1         1         1         1         1         1         1
         1         1         1         1         1         1         1         1
         1         1         1         1         1         1         1         1
         1         1         1         1         1         1         1         1
         1         1         1         1         1         1         1         1
         1         1         1         1         1         1         1         1
         1         1         1         1         1         1         1         1
         1         1         1         1         1         1         1         1
         1         1         1         1         1         1         1         1
         1         1         1         1         1         1         1         1
         1         1         1         1         1         1         1         1
         1         1         1         1         1         1         1         1
         1         1         1         1         1         1         1         1
         1         1         1         1         1         1         1         1
         1         1         1         1         1         1         1         1
         1         1         1         1         1         1         1         1
         1         1         1         1         1         1         1         1
         1         1         1         1         1         1         1         1
         1         1         1         1         1         1         1         1
         1         1         1         1         1         1         1         1
         1         1         1         1         1         1         1         1
         1         1         1         1         1         1         1         1
         1         1         1         1         1         1         1         1
         1         1         1         1         1         1         1         1
         1         1         1         1         1         1         1         1
         1         1         1         1         1         1         1         1
         1         1         1         1         1         1         1         1
         1         1         1         1         1         1         1         1
         1         1         1         1         1         1         1         1
         1         1         1         1         1         1         1         1
         1         1         1         1         1         1         1         1
         1         1         1         1         1         1         1         1
         1         1         1         1         1         1         1         1
         1         1         1         1         1         1         1         1
         1         1         1         1         1         1         1         1
         1         1         1         1         1         1         1         1
         1         1         1         1         1         1         1         1
         1         1         1         1         1         1         1         1
         1         1         1         1         1         1         1         1
         1         1         1         1         1         1         1         1
         1         1         1         1         1         1         1         1
         1         1         1         1         1         1         1         1
         1         1         1         1         1         1         1         1
         1         1         1         1         1         1         1         1
         1         1         1         1         1         1         1         1
         1         1         1         1         1         1         1         1
         1         1         1         1         1         1         1         1
         1         1         1         1         1         1         1         1
         1         1         1         1         1         1         1         1
         1         1         1         1         1         1         1         1
         1         1         1         1         1         1         1         1
         1         1         1         1         1         1         1         1
         1         1         1         1         1         1         1         1
         1         1         1         1         1         1         1         1
         1         1         1         1         1         1         1         1
         1         1         1         1         1         1         1         1
         1         1         1         1         1         1         1         1
         1         1         1         1         1         1         1         1
         1         1         1         1         1         1         1         1
         1         1         1         1         1         1         1         1
         1         1         1         1         1         1         1         1
         1         1         1         1         1         1         1         1
         1         1         1         1         1         1         1         1
         1         1         1         1         1         1         1         1
         1         1         1         1         1         1         1         1
         1         1         1         1         1         1         1         1
         1         1         1         1         1         1         1         1
         1         1         1         1         1         1         1         1
         1         1         1         1         1         1         1         1
         1         1         1         1         1         1         1         1
         1         1         1         1         1         1         1         1
         1         1         1         1         1         1         1         1
         1         1         1         1         1         1         1         1
         1         1         1         1         1         1         1         1
         1         1         1         1         1         1         1         1
         1         1         1         1         1         1         1         1
         1         1         1         1         1         1         1         1
         1         1         1         1         1         1         1         1
         1         1         1         1         1         1         1         1
         1         1         1         1         1         1         1         1
         1         1         1         1         1         1         1         1
         1         1         1         1         1         1         1         1
         1         1         1         1         1         1         1         1
         1         1         1         1         1         1         1         1
         1         1         1         1         1         1         1         1
         1         1         1         1         1         1         1         1
         1         1         1         1         1         1         1         1
         1         1         1         1         1         1         1         1
         1         1         1         1         1         1         1         1
         1         1         1         1         1         1         1         1
         1         1         1         1         1         1         1         1
         1         1         1         1         1         1         1         1
         1         1         1         1         1         1         1         1
         1         1         1         1         1         1         1         1
         1         1         1         1         1         1         1         1
         1         1         1         1         1         1         1         1
         1         1         1         1         1         1         1         1
         1         1         1         1         1         1         1         1
         1         1         1         1         1         1         1         1
         1         1         1         1         1         1         1         1
         1         1         1         1         1         1         1         1
         1         1         1         1         1         1         1         1
         1         1         1         1         1         1         1         1
         1         1         1         1         1         1         1         1
         1         1         1         1         1         1         1         1
         1         1         1         1         1         1         1         1
         1         1         1         1         1         1         1         1
         1         1         1         1         1         1         1         1
         1         1         1         1         1         1         1         1
         1         1         1         1         1         1         1         1
         1         1         1         1         1         1         1         1
         1         1         1         1         1         1         1         1
         1         1         1         1         1         1         1         1
         1         1         1         1         1         1         1         1
         1         1         1         1         1         1         1         1
         1         1         1         1         1         1         1         1
         1         1         1         1         1         1         1         1
         1         1         1         1         1         1         1         1
         1         1         1         1         1         1         1         1
         1         1         1         1         1         1         1         1
         1         1         1         1         1         1         1         1
         1         1         1         1         1         1         1         1
         1         1         1         1         1         1         1         1
         1         1         1         1         1         1         1         1
         1         1         1         1         1         1         1         1
         1         1         1         1         1         1         1         1
         1         1         1         1         1         1         1         1
         1         1         1         1         1         1         1         1
         1         1         1         1         1         1         1         1
         1         1         1         1         1         1         1         1
         1         1         1         1         1         1         1         1
         1         1         1         1         1         1         1         1
         1         1         1         1         1         1         1         1
         1         1         1         1         1         1         1         1
         1         1         1         1         1         1         1         1
         1         1         1         1         1         1         1         1
         1         1         1         1         1         1         1         1
         1         1         1         1         1         1         1         1
         1         1         1         1         1         1         1         1
         1         1         1         1         1         1         1         1
         1         1         1         1         1         1         1         1
         1         1         1         1         1         1         1         1
         1         1         1         1         1         1         1         1
         1         1         1         1         1         1         1         1
         1         1         1         1         1         1         1         1
         1         1         1         1         1         1         1         1
         1         1         1         1         1         1         1         1
         1         1         1         1         1         1         1         1
         1         1         1         1         1         1         1         1
         1         1         1         1         1         1         1         1
         1         1         1         1         1         1         1         1
         1         1         1         1         1         1         1         1
         1         1         1         1         1         1         1         1
         1         1         1         1         1         1         1         1
         1         1         1         1         1         1         1         1
         1         1         1         1         1         1         1         1
         1         1         1         1         1         1         1         1
         1         1         1         1         1         1         1         1
         1         1         1         1         1         1         1         1
         1         1         1         1         1         1         1         1
         1         1         1         1         1         1         1         1
         1         1         1         1         1         1         1         1
         1         1         1         1         1         1         1         1
         1         1         1         1         1         1         1         1
         1         1         1         1         1         1         1         1
         1         1         1         1         1         1         1         1
         1         1         1         1         1         1         1         1
         1         1         1         1         1         1         1         1
         1         1         1         1         1         1         1         1
         1         1         1         1         1         1         1         1
         1         1         1         1         1         1         1         1
         1         1         1         1         1         1         1         1
         1         1         1         1         1         1         1         1
         1         1         1         1         1         1         1         1
         1         1         1         1         1         1         1         1
         1         1         1         1         1         1         1         1
         1         1         1         1         1         1         1         1
         1         1         1         1         1         1         1         1
         1         1         1         1         1         1         1         1
         1         1         1         1         1         1         1         1
         1         1         1         1         1         1         1         1
         1         1         1         1         1         1         1         1
         1         1         1         1         1         1         1         1
         1         1         1         1         1         1         1         1
         1         1         1         1         1         1         1         1
         1         1         1         1         1         1         1         1
         1         1         1         1         1         1         1         1
         1         1         1         1         1         1         1         1
         1         1         1         1         1         1         1         1
         1         1         1         1         1         1         1         1
         1         1         1         1         1         1         1         1
         1         1         1         1         1         1         1         1
         1         1         1         1         1         1         1         1
         1         1         1         1         1         1         1         1
         1         1         1         1         1         1         1         1
         1         1         1         1         1         1         1         1
         1         1         1         1         1         1         1         1
         1         1         1         1         1         1         1         1
         1         1         1         1         1         1         1         1
         1         1         1         1         1         1         1         1
         1         1         1         1         1         1         1         1
         1         1         1         1         1         1         1         1
         1         1         1         1         1         1         1         1
         1         1         1         1         1         1         1         1
         1         1         1         1         1         1         1         1
         1         1         1         1         1         1         1         1
         1         1         1         1         1         1         1         1
         1         1         1         1         1         1         1         1
         1         1         1         1         1         1         1         1
         1         1         1         1         1         1         1         1
         1         1         1         1         1         1         1         1
         1         1         1         1         1         1         1         1
         1         1         1         1         1         1         1         1
         1         1         1         1         1         1         1         1
         1         1         1         1         1         1         1         1
         1         1         1         1         1         1         1         1
         1         1         1         1         1         1         1         1
         1         1         1         1         1         1         1         1
         1         1         1         1         1         1         1         1
         1         1         1         1         1         1         1         1
         1         1         1         1         1         1         1         1
         1         1         1         1         1         1         1         1
         1         1         1         1         1         1         1         1
         1         1         1         1         1         1         1         1
         1         1         1         1         1         1         1         1
         1         1         1         1         1         1         1         1
         1         1         1         1         1         1         1         1
         1         1         1         1         1         1         1         1
         1         1         1         1         1         1         1         1
         1         1         1         1         1         1         1         1
         1         1         1         1         1         1         1         1
         1         1         1         1         1         1         1         1
         1         1         1         1         1         1         1         1
         1         1         1         1         1         1         1         1
         1         1         1         1         1         1         1         1
         1         1         1         1         1         1         1         1
         1         1         1         1         1         1         1         1
         1         1         1         1         1         1         1         1
         1         1         1         1         1         1         1         1
         1         1         1         1         1         1         1         1
         1         1         1         1         1         1         1         1
         1         1         1         1         1         1         1         1
         1         1         1         1         1         1         1         1
         1         1         1         1         1         1         1         1
         1         1         1         1         1         1         1         1
         1         1         1         1         1         1         1         1
         1         1         1         1         1         1         1         1
         1         1         1         1         1         1         1         1
         1         1         1         1         1         1         1         1
         1         1         1         1         1         1         1         1
         1         1         1         1         1         1         1         1
         1         1         1         1         1         1         1         1
         1         1         1         1         1         1         1         1
         1         1         1         1         1         1         1         1
         1         1         1         1         1         1         1         1
         1         1         1         1         1         1         1         1
         1         1         1         1         1         1         1         1
         1         1         1         1         1         1         1         1
         1         1         1         1         1         1         1         1
         1         1         1         1         1         1         1         1
         1         1         1         1         1         1         1         1
         1         1         1         1         1         1         1         1
         1         1         1         1         1         1         1         1
         1         1         1         1         1         1         1         1
         1         1         1         1         1         1         1         1
         1         1         1         1         1         1         1         1
         1         1         1         1         1         1         1         1
         1         1         1         1         1         1         1         1
         1         1         1         1         1         1         1         1
         1         1         1         1         1         1         1         1
         1         1         1         1         1         1         1         1
         1         1         1         1         1         1         1         1
         1         1         1         1         1         1         1         1
         1         1         1         1         1         1         1         1
         1         1         1         1         1         1         1         1
         1         1         1         1         1         1         1         1
         1         1         1         1         1         1         1         1
         1         1         1         1         1         1         1         1
         1         1         1         1         1         1         1         1
         1         1         1         1         1         1         1         1
         1         1         1         1         1         1         1         1
         1         1         1         1         1         1         1         1
         1         1         1         1         1         1         1         1
         1         1         1         1         1         1         1         1
         1         1         1         1         1         1         1         1
         1         1         1         1         1         1         1         1
         1         1         1         1         1         1         1         1
         1         1         1         1         1         1         1         1
         1         1         1         1         1         1         1         1
         1         1         1         1         1         1         1         1
         1         1         1         1         1         1         1         1
         1         1         1         1         1         1         1         1
         1         1         1         1         1         1         1         1
         1         1         1         1         1         1         1         1
         1         1         1         1         1         1         1         1
         1         1         1         1         1         1         1         1
         1         1         1         1         1         1         1         1
         1         1         1         1         1         1         1         1
         1         1         1         1         1         1         1         1
         1         1         1         1         1         1         1         1
         1         1         1         1         1         1         1         1
         1         1         1         1         1         1         1         1
         1         1         1         1         1         1         1         1
         1         1         1         1         1         1         1         1
         1         1         1         1         1         1         1         1
         1         1         1         1         1         1         1         1
         1         1         1         1         1         1         1         1
         1         1         1         1         1         1         1         1
         1         1         1         1         1         1         1         1
         1         1         1         1         1         1         1         1
         1         1         1         1         1         1         1         1
         1         1         1         1         1         1         1         1
         1         1         1         1         1         1         1         1
         1         1         1         1         1         1         1         1
         1         1         1         1         1         1         1         1
         1         1         1         1         1         1         1         1
         1         1         1         1         1         1         1         1
         1         1         1         1         1         1         1         1
         1         1         1         1         1         1         1         1
         1         1         1         1         1         1         1         1
         1         1         1         1         1         1         1         1
         1         1         1         1         1         1         1         1
         1         1         1         1         1         1         1         1
         1         1         1         1         1         1         1         1
         1         1         1         1         1         1         1         1
         1         1         1         1         1         1         1         1
         1         1         1         1         1         1         1         1
         1         1         1         1         1         1         1         1
         1         1         1         1         1         1         1         1
         1         1         1         1         1         1         1         1
         1         1         1         1         1         1         1         1
         1         1         1         1         1         1         1         1
         1         1         1         1         1         1         1         1
         1         1         1         1         1         1         1         1
         1         1         1         1         1         1         1         1
         1         1         1         1         1         1         1         1
         1         1         1         1         1         1         1         1
         1         1         1         1         1         1         1         1
         1         1         1         1         1         1         1         1
         1         1         1         1         1         1         1         1
         1         1         1         1         1         1         1         1
         1         1         1         1         1         1         1         1
         1         1         1         1         1         1         1         1
         1         1         1         1         1         1         1         1
         1         1         1         1         1         1         1         1
         1         1         1         1         1         1         1         1
         1         1         1         1         1         1         1         1
         1         1         1         1         1         1         1         1
         1         1         1         1         1         1         1         1
         1         1         1         1         1         1         1         1
         1         1         1         1         1         1         1         1
         1         1         1         1         1         1         1         1
         1         1         1         1         1         1         1         1
         1         1         1         1         1         1         1         1
         1         1         1         1         1         1         1         1
         1         1         1         1         1         1         1         1
         1         1         1         1         1         1         1         1
         1         1         1         1         1         1         1         1
         1         1         1         1         1         1         1         1
         1         1         1         1         1         1         1         1
         1         1         1         1         1         1         1         1
         1         1         1         1         1         1         1         1
         1         1         1         1         1         1         1         1
         1         1         1         1         1         1         1         1
         1         1         1         1         1         1         1         1
         1         1         1         1         1         1         1         1
         1         1         1         1         1         1         1         1
         1         1         1         1         1         1         1         1
         1         1         1         1         1         1         1         1
         1         1         1         1         1         1         1         1
         1         1         1         1         1         1         1         1
         1         1         1         1         1         1         1         1
         1         1         1         1         1         1         1         1
         1         1         1         1         1         1         1         1
         1         1         1         1         1         1         1         1
         1         1         1         1         1         1         1         1
         1         1         1         1         1         1         1         1
         1         1         1         1         1         1         1         1
         1         1         1         1         1         1         1         1
         1         1         1         1         1         1         1         1
         1         1         1         1         1         1         1         1
         1         1         1         1         1         1         1         1
         1         1         1         1         1         1         1         1
         1         1         1         1         1         1         1         1
         1         1         1         1         1         1         1         1
         1         1         1         1         1         1         1         1
         1         1         1         1         1         1         1         1
         1         1         1         1         1         1         1         1
         1         1         1         1         1         1         1         1
         1         1         1         1         1         1         1         1
         1         1         1         1         1         1         1         1
         1         1         1         1         1         1         1         1
         1         1         1         1         1         1         1         1
         1         1         1         1         1         1         1         1
         1         1         1         1         1         1         1         1
         1         1         1         1         1         1         1         1
         1         1         1         1         1         1         1         1
         1         1         1         1         1         1         1         1
         1         1         1         1         1         1         1         1
         1         1         1         1         1         1         1         1
         1         1         1         1         1         1         1         1
         1         1         1         1         1         1         1         1
         1         1         1         1         1         1         1         1
         1         1         1         1         1         1         1         1
         1         1         1         1         1         1         1         1
         1         1         1         1         1         1         1         1
         1         1         1         1         1         1         1         1
         1         1         1         1         1         1         1         1
         1         1         1         1         1         1         1         1
         1         1         1         1         1         1         1         1
         1         1         1         1         1         1         1         1
         1         1         1         1         1         1         1         1
         1         1         1         1         1         1         1         1
         1         1         1         1         1         1         1         1
         1         1         1         1         1         1         1         1
         1         1         1         1         1         1         1         1
         1         1         1         1         1         1         1         1
         1         1         1         1         1         1         1         1
         1         1         1         1         1         1         1         1
         1         1         1         1         1         1         1         1
         1         1         1         1         1         1         1         1
         1         1         1         1         1         1         1         1
         1         1         1         1         1         1         1         1
         1         1         1         1         1         1         1         1
         1         1         1         1         1         1         1         1
         1         1         1         1         1         1         1         1
         1         1         1         1         1         1         1         1
         1         1         1         1         1         1         1         1
         1         1         1         1         1         1         1         1
         1         1         1         1         1         1         1         1
         1         1         1         1         1         1         1         1
         1         1         1         1         1         1         1         1
         1         1         1         1         1         1         1         1
         1         1         1         1         1         1         1         1
         1         1         1         1         1         1         1         1
         1         1         1         1         1         1         1         1
         1         1         1         1         1         1         1         1
         1         1         1         1         1         1         1         1
         1         1         1         1         1         1         1         1
         1         1         1         1         1         1         1         1
         1         1         1         1         1         1         1         1
         1         1         1         1         1         1         1         1
         1         1         1         1         1         1         1         1
         1         1         1         1         1         1         1         1
         1         1         1         1         1         1         1         1
         1         1         1         1         1         1         1         1
         1         1         1         1         1         1         1         1
         1         1         1         1         1         1         1         1
         1         1         1         1         1         1         1         1
         1         1         1         1         1         1         1         1
         1         1         1         1         1         1         1         1
         1         1         1         1         1         1         1         1
         1         1         1         1         1         1         1         1
         1         1         1         1         1         1         1         1
         1         1         1         1         1         1         1         1
         1         1         1         1         1         1         1         1
         1         1         1         1         1         1         1         1
         1         1         1         1         1         1         1         1
         1         1         1         1         1         1         1         1
         1         1         1         1         1         1         1         1
         1         1         1         1         1         1         1         1
         1         1         1         1         1         1         1         1
         1         1         1         1         1         1         1         1
         1         1         1         1         1         1         1         1
         1         1         1         1         1         1         1         1
         1         1         1         1         1         1         1         1
         1         1         1         1         1         1         1         1
         1         1         1         1         1         1         1         1
         1         1         1         1         1         1         1         1
         1         1         1         1         1         1         1         1
         1         1         1         1         1         1         1         1
         1         1         1         1         1         1         1         1
         1         1         1         1         1         1         1         1
         1         1         1         1         1         1         1         1
         1         1         1         1         1         1         1         1
         1         1         1         1         1         1         1         1
         1         1         1         1         1         1         1         1
         1         1         1         1         1         1         1         1
         1         1         1         1         1         1         1         1
         1         1         1         1         1         1         1         1
         1         1         1         1         1         1         1         1
         1         1         1         1         1         1         1         1
         1         1         1         1         1         1         1         1
         1         1         1         1         1         1         1         1
         1         1         1         1         1         1         1         1
         1         1         1         1         1         1         1         1
         1         1         1         1         1         1         1         1
         1         1         1         1         1         1         1         1
         1         1         1         1         1         1         1         1
         1         1         1         1         1         1         1         1
         1         1         1         1         1         1         1         1
         1         1         1         1         1         1         1         1
         1         1         1         1         1         1         1         1
         1         1         1         1         1         1         1         1
         1         1         1         1         1         1         1         1
         1         1         1         1         1         1         1         1
         1         1         1         1         1         1         1         1
         1         1         1         1         1         1         1         1
         1         1         1         1         1         1         1         1
         1         1         1         1         1         1         1         1
         1         1         1         1         1         1         1         1
         1         1         1         1         1         1         1         1
         1         1         1         1         1         1         1         1
         1         1         1         1         1         1         1         1
         1         1         1         1         1         1         1         1
         1         1         1         1         1         1         1         1
         1         1         1         1         1         1         1         1
         1         1         1         1         1         1         1         1
         1         1         1         1         1         1         1         1
         1         1         1         1         1         1         1         1
         1         1         1         1         1         1         1         1
         1         1         1         1         1         1         1         1
         1         1         1         1         1         1         1         1
         1         1         1         1         1         1         1         1
         1         1         1         1         1         1         1         1
         1         1         1         1         1         1         1         1
         1         1         1         1         1         1         1         1
         1         1         1         1         1         1         1         1
         1         1         1         1         1         1         1         1
         1         1         1         1         1         1         1         1
         1         1         1         1         1         1         1         1
         1         1         1         1         1         1         1         1
         1         1         1         1         1         1         1         1
         1         1         1         1         1         1         1         1
         1         1         1         1         1         1         1         1
         1         1         1         1         1         1         1         1
         1         1         1         1         1         1         1         1
         1         1         1         1         1         1         1         1
         1         1         1         1         1         1         1         1
         1         1         1         1         1         1         1         1
         1         1         1         1         1         1         1         1
         1         1         1         1         1         1         1         1
         1         1         1         1         1         1         1         1
         1         1         1         1         1         1         1         1
         1         1         1         1         1         1         1         1
         1         1         1         1         1         1         1         1
         1         1         1         1         1         1         1         1
         1         1         1         1         1         1         1         1
         1         1         1         1         1         1         1         1
         1         1         1         1         1         1         1         1
         1         1         1         1         1         1         1         1
         1         1         1         1         1         1         1         1
         1         1         1         1         1         1         1         1
         1         1         1         1         1         1         1         1
         1         1         1         1         1         1         1         1
         1         1         1         1         1         1         1         1
         1         1         1         1         1         1         1         1
         1         1         1         1         1         1         1         1
         1         1         1         1         1         1         1         1
         1         1         1         1         1         1         1         1
         1         1         1         1         1         1         1         1
         1         1         1         1         1         1         1         1
         1         1         1         1         1         1         1         1
         1         1         1         1         1         1         1         1
         1         1         1         1         1         1         1         1
         1         1         1         1         1         1         1         1
         1         1         1         1         1         1         1         1
         1         1         1         1         1         1         1         1
         1         1         1         1         1         1         1         1
         1         1         1         1         1         1         1         1
         1         1         1         1         1         1         1         1
         1         1         1         1         1         1         1         1
         1         1         1         1         1         1         1         1
         1         1         1         1         1         1         1         1
         1         1         1         1         1         1         1         1
         1         1         1         1         1         1         1         1
         1         1         1         1         1         1         1         1
         1         1         1         1         1         1         1         1
         1         1         1         1         1         1         1         1
         1         1         1         1         1         1         1         1
         1         1         1         1         1         1         1         1
         1         1         1         1         1         1         1         1
         1         1         1         1         1         1         1         1
         1         1         1         1         1         1         1         1
         1         1         1         1         1         1         1         1
         1         1         1         1         1         1         1         1
         1         1         1         1         1         1         1         1
         1         1         1         1         1         1         1         1
         1         1         1         1         1         1         1         1
         1         1         1         1         1         1         1         1
         1         1         1         1         1         1         1         1
         1         1         1         1         1         1         1         1
         1         1         1         1         1         1         1         1
         1         1         1         1         1         1         1         1
         1         1         1         1         1         1         1         1
         1         1         1         1         1         1         1         1
         1         1         1         1         1         1         1         1
         1         1         1         1         1         1         1         1
         1         1         1         1         1         1         1         1
         1         1         1         1         1         1         1         1
         1         1         1         1         1         1         1         1
         1         1         1         1         1         1         1         1
         1         1         1         1         1         1         1         1
         1         1         1         1         1         1         1         1
         1         1         1         1         1         1         1         1
         1         1         1         1         1         1         1         1
         1         1         1         1         1         1         1         1
         1         1         1         1         1         1         1         1
         1         1         1         1         1         1         1         1
         1         1         1         1         1         1         1         1
         1         1         1         1         1         1         1         1
         1         1         1         1         1         1         1         1
         1         1         1         1         1         1         1         1
         1         1         1         1         1         1         1         1
         1         1         1         1         1         1         1         1
         1         1         1         1         1         1         1         1
         1         1         1         1         1         1         1         1
         1         1         1         1         1         1         1         1
         1         1         1         1         1         1         1         1
         1         1         1         1         1         1         1         1
         1         1         1         1         1         1         1         1
         1         1         1         1         1         1         1         1
         1         1         1         1         1         1         1         1
         1         1         1         1         1         1         1         1
         1         1         1         1         1         1         1         1
         1         1         1         1         1         1         1         1
         1         1         1         1         1         1         1         1
         1         1         1         1         1         1         1         1
         1         1         1         1         1         1         1         1
         1         1         1         1         1         1         1         1
         1         1         1         1         1         1         1         1
         1         1         1         1         1         1         1         1
         1         1         1         1         1         1         1         1
         1         1         1         1         1         1         1         1
         1         1         1         1         1         1         1         1
         1         1         1         1         1         1         1         1
         1         1         1         1         1         1         1         1
         1         1         1         1         1         1         1         1
         1         1         1         1         1         1         1         1
         1         1         1         1         1         1         1         1
         1         1         1         1         1         1         1         1
         1         1         1         1         1         1         1         1
         1         1         1         1         1         1         1         1
         1         1         1         1         1         1         1         1
         1         1         1         1         1         1         1         1
         1         1         1         1         1         1         1         1
         1         1         1         1         1         1         1         1
         1         1         1         1         1         1         1         1
         1         1         1         1         1         1         1         1
         1         1         1         1         1         1         1         1
         1         1         1         1         1         1         1         1
         1         1         1         1         1         1         1         1
         1         1         1         1         1         1         1         1
         1         1         1         1         1         1         1         1
         1         1         1         1         1         1         1         1
         1         1         1         1         1         1         1         1
         1         1         1         1         1         1         1         1
         1         1         1         1         1         1         1         1
         1         1         1         1         1         1         1         1
         1         1         1         1         1         1         1         1
         1         1         1         1         1         1         1         1
         1         1         1         1         1         1         1         1
         1         1         1         1         1         1         1         1
         1         1         1         1         1         1         1         1
         1         1         1         1         1         1         1         1
         1         1         1         1         1         1         1         1
         1         1         1         1         1         1         1         1
         1         1         1         1         1         1         1         1
         1         1         1         1         1         1         1         1
         1         1         1         1         1         1         1         1
         1         1         1         1         1         1         1         1
         1         1         1         1         1         1         1         1
         1         1         1         1         1         1         1         1
         1         1         1         1         1         1         1         1
         1         1         1         1         1         1         1         1
         1         1         1         1         1         1         1         1
         1         1         1         1         1         1         1         1
         1         1         1         1         1         1         1         1
         1         1         1         1         1         1         1         1
         1         1         1         1         1         1         1         1
         1         1         1         1         1         1         1         1
         1         1         1         1         1         1         1         1
         1         1         1         1         1         1         1         1
         1         1         1         1         1         1         1         1
         1         1         1         1         1         1         1         1
         1         1         1         1         1         1         1         1
         1         1         1         1         1         1         1         1
         1         1         1         1         1         1         1         1
         1         1         1         1         1         1         1         1
         1         1         1         1         1         1         1         1
         1         1         1         1         1         1         1         1
         1         1         1         1         1         1         1         1
         1         1         1         1         1         1         1         1
         1         1         1         1         1         1         1         1
         1         1         1         1         1         1         1         1
         1         1         1         1         1         1         1         1
         1         1         1         1         1         1         1         1
         1         1         1         1         1         1         1         1
         1         1         1         1         1         1         1         1
         1         1         1         1         1         1         1         1
         1         1         1         1         1         1         1         1
         1         1         1         1         1         1         1         1
         1         1         1         1         1         1         1         1
         1         1         1         1         1         1         1         1
         1         1         1         1         1         1         1         1
         1         1         1         1         1         1         1         1
         1         1         1         1         1         1         1         1
         1         1         1         1         1         1         1         1
         1         1         1         1         1         1         1         1
         1         1         1         1         1         1         1         1
         1         1         1         1         1         1         1         1
         1         1         1         1         1         1         1         1
         1         1         1         1         1         1         1         1
         1         1         1         1         1         1         1         1
         1         1         1         1         1         1         1         1
         1         1         1         1         1         1         1         1
         1         1         1         1         1         1         1         1
         1         1         1         1         1         1         1         1
         1         1         1         1         1         1         1         1
         1         1         1         1         1         1         1         1
         1         1         1         1         1         1         1         1
         1         1         1         1         1         1         1         1
         1         1         1         1         1         1         1         1
         1         1         1         1         1         1         1         1
         1         1         1         1         1         1         1         1
         1         1         1         1         1         1         1         1
         1         1         1         1         1         1         1         1
         1         1         1         1         1         1         1         1
         1         1         1         1         1         1         1         1
         1         1         1         1         1         1         1         1
         1         1         1         1         1         1         1         1
         1         1         1         1         1         1         1         1
         1         1         1         1         1         1         1         1
         1         1         1         1         1         1         1         1
         1         1         1         1         1         1         1         1
         1         1         1         1         1         1         1         1
         1         1         1         1         1         1         1         1
         1         1         1         1         1         1         1         1
         1         1         1         1         1         1         1         1
         1         1         1         1         1         1         1         1
         1         1         1         1         1         1         1         1
         1         1         1         1         1         1         1         1
         1         1         1         1         1         1         1         1
         1         1         1         1         1         1         1         1
         1         1         1         1         1         1         1         1
         1         1         1         1         1         1         1         1
         1         1         1         1         1         1         1         1
         1         1         1         1         1         1         1         1
         1         1         1         1         1         1         1         1
         1         1         1         1         1         1         1         1
         1         1         1         1         1         1         1         1
         1         1         1         1         1         1         1         1
         1         1         1         1         1         1         1         1
         1         1         1         1         1         1         1         1
         1         1         1         1         1         1         1         1
         1         1         1         1         1         1         1         1
         1         1         1         1         1         1         1         1
         1         1         1         1         1         1         1         1
         1         1         1         1         1         1         1         1
         1         1         1         1         1         1         1         1
         1         1         1         1         1         1         1         1
         1         1         1         1         1         1         1         1
         1         1         1         1         1         1         1         1
         1         1         1         1         1         1         1         1
         1         1         1         1         1         1         1         1
         1         1         1         1         1         1         1         1
         1         1         1         1         1         1         1         1
         1         1         1         1         1         1         1         1
         1         1         1         1         1         1         1         1
         1         1         1         1         1         1         1         1
         1         1         1         1         1         1         1         1
         1         1         1         1         1         1         1         1
         1         1         1         1         1         1         1         1
         1         1         1         1         1         1         1         1
         1         1         1         1         1         1         1         1
         1         1         1         1         1         1         1         1
         1         1         1         1         1         1         1         1
         1         1         1         1         1         1         1         1
         1         1         1         1         1         1         1         1
         1         1         1         1         1         1         1         1
         1         1         1         1         1         1         1         1
         1         1         1         1         1         1         1         1
         1         1         1         1         1         1         1         1
         1         1         1         1         1         1         1         1
         1         1         1         1         1         1         1         1
         1         1         1         1         1         1         1         1
         1         1         1         1         1         1         1         1
         1         1         1         1         1         1         1         1
         1         1         1         1         1         1         1         1
         1         1         1         1         1         1         1         1
         1         1         1         1         1         1         1         1
         1         1         1         1         1         1         1         1
         1         1         1         1         1         1         1         1
         1         1         1         1         1         1         1         1
         1         1         1         1         1         1         1         1
         1         1         1         1         1         1         1         1
         1         1         1         1         1         1         1         1
         1         1         1         1         1         1         1         1
         1         1         1         1         1         1         1         1
         1         1         1         1         1         1         1         1
         1         1         1         1         1         1         1         1
         1         1         1         1         1         1         1         1
         1         1         1         1         1         1         1         1
         1         1         1         1         1         1         1         1
         1         1         1         1         1         1         1         1
         1         1         1         1         1         1         1         1
         1         1         1         1         1         1         1         1
         1         1         1         1         1         1         1         1
         1         1         1         1         1         1         1         1
         1         1         1         1         1         1         1         1
         1         1         1         1         1         1         1         1
         1         1         1         1         1         1         1         1
         1         1         1         1         1         1         1         1
         1         1         1         1         1         1         1         1
         1         1         1         1         1         1         1         1
         1         1         1         1         1         1         1         1
         1         1         1         1         1         1         1         1
         1         1         1         1         1         1         1         1
         1         1         1         1         1         1         1         1
         1         1         1         1         1         1         1         1
         1         1         1         1         1         1         1         1
         1         1         1         1         1         1         1         1
         1         1         1         1         1         1         1         1
         1         1         1         1         1         1         1         1
         1         1         1         1         1         1         1         1
         1         1         1         1         1         1         1         1
         1         1         1         1         1         1         1         1
         1         1         1         1         1         1         1         1
         1         1         1         1         1         1         1         1
         1         1         1         1         1         1         1         1
         1         1         1         1         1         1         1         1
         1         1         1         1         1         1         1         1
         1         1         1         1         1         1         1         1
         1         1         1         1         1         1         1         1
         1         1         1         1         1         1         1         1
         1         1         1         1         1         1         1         1
         1         1         1         1         1         1         1         1
         1         1         1         1         1         1         1         1
         1         1         1         1         1         1         1         1
         1         1         1         1         1         1         1         1
         1         1         1         1         1         1         1         1
         1         1         1         1         1         1         1         1
         1         1         1         1         1         1         1         1
         1         1         1         1         1         1         1         1
         1         1         1         1         1         1         1         1
         1         1         1         1         1         1         1         1
         1         1         1         1         1         1         1         1
         1         1         1         1         1         1         1         1
         1         1         1         1         1         1         1         1
         1         1         1         1         1         1         1         1
         1         1         1         1         1         1         1         1
         1         1         1         1         1         1         1         1
         1         1         1         1         1         1         1         1
         1         1         1         1         1         1         1         1
         1         1         1         1         1         1         1         1
         1         1         1         1         1         1         1         1
         1         1         1         1         1         1         1         1
         1         1         1         1         1         1         1         1
         1         1         1         1         1         1         1         1
         1         1         1         1         1         1         1         1
         1         1         1         1         1         1         1         1
         1         1         1         1         1         1         1         1
         1         1         1         1         1         1         1         1
         1         1         1         1         1         1         1         1
         1         1         1         1         1         1         1         1
         1         1         1         1         1         1         1         1
         1         1         1         1         1         1         1         1
         1         1         1         1         1         1         1         1
         1         1         1         1         1         1         1         1
         1         1         1         1         1         1         1         1
         1         1         1         1         1         1         1         1
         1         1         1         1         1         1         1         1
         1         1         1         1         1         1         1         1
         1         1         1         1         1         1         1         1
         1         1         1         1         1         1         1         1
         1         1         1         1         1         1         1         1
         1         1         1         1         1         1         1         1
         1         1         1         1         1         1         1         1
         1         1         1         1         1         1         1         1
         1         1         1         1         1         1         1         1
         1         1         1         1         1         1         1         1
         1         1         1         1         1         1         1         1
         1         1         1         1         1         1         1         1
         1         1         1         1         1         1         1         1
         1         1         1         1         1         1         1         1
         1         1         1         1         1         1         1         1
         1         1         1         1         1         1         1         1
         1         1         1         1         1         1         1         1
         1         1         1         1         1         1         1         1
         1         1         1         1         1         1         1         1
         1         1         1         1         1         1         1         1
         1         1         1         1         1         1         1         1
         1         1         1         1         1         1         1         1
         1         1         1         1         1         1         1         1
         1         1         1         1         1         1         1         1
         1         1         1         1         1         1         1         1
         1         1         1         1         1         1         1         1
         1         1         1         1         1         1         1         1
         1         1         1         1         1         1         1         1
         1         1         1         1         1         1         1         1
         1         1         1         1         1         1         1         1
         1         1         1         1         1         1         1         1
         1         1         1         1         1         1         1         1
         1         1         1         1         1         1         1         1
         1         1         1         1         1         1         1         1
         1         1         1         1         1         1         1         1
         1         1         1         1         1         1         1         1
         1         1         1         1         1         1         1         1
         1         1         1         1         1         1         1         1
         1         1         1         1         1         1         1         1
         1         1         1         1         1         1         1         1
         1         1         1         1         1         1         1         1
         1         1         1         1         1         1         1         1
         1         1         1         1         1         1         1         1
         1         1         1         1         1         1         1         1
         1         1         1         1         1         1         1         1
         1         1         1         1         1         1         1         1
         1         1         1         1         1         1         1         1
         1         1         1         1         1         1         1         1
         1         1         1         1         1         1         1         1
         1         1         1         1         1         1         1         1
         1         1         1         1         1         1         1         1
         1         1         1         1         1         1         1         1
         1         1         1         1         1         1         1         1
         1         1         1         1         1         1         1         1
         1         1         1         1         1         1         1         1
         1         1         1         1         1         1         1         1
         1         1         1         1         1         1         1         1
         1         1         1         1         1         1         1         1
         1         1         1         1         1         1         1         1
         1         1         1         1         1         1         1         1
         1         1         1         1         1         1         1         1
         1         1         1         1         1         1         1         1
         1         1         1         1         1         1         1         1
         1         1         1         1         1         1         1         1
         1         1         1         1         1         1         1         1
         1         1         1         1         1         1         1         1
         1         1         1         1         1         1         1         1
         1         1         1         1         1         1         1         1
         1         1         1         1         1         1         1         1
         1         1         1         1         1         1         1         1
         1         1         1         1         1         1         1         1
         1         1         1         1         1         1         1         1
         1         1         1         1         1         1         1         1
         1         1         1         1         1         1         1         1
         1         1         1         1         1         1         1         1
         1         1         1         1         1         1         1         1
         1         1         1         1         1         1         1         1
         1         1         1         1         1         1         1         1
         1         1         1         1         1         1         1         1
         1         1         1         1         1         1         1         1
         1         1         1         1         1         1         1         1
         1         1         1         1         1         1         1         1
         1         1         1         1         1         1         1         1
         1         1         1         1         1         1         1         1
         1         1         1         1         1         1         1         1
         1         1         1         1         1         1         1         1
         1         1         1         1         1         1         1         1
         1         1         1         1         1         1         1         1
         1         1         1         1         1         1         1         1
         1         1         1         1         1         1         1         1
         1         1         1         1         1         1         1         1
         1         1         1         1         1         1         1         1
         1         1         1         1         1         1         1         1
         1         1         1         1         1         1         1         1
         1         1         1         1         1         1         1         1
         1         1         1         1         1         1         1         1
         1         1         1         1         1         1         1         1
         1         1         1         1         1         1         1         1
         1         1         1         1         1         1         1         1
         1         1         1         1         1         1         1         1
         1         1         1         1         1         1         1         1
         1         1         1         1         1         1         1         1
         1         1         1         1         1         1         1         1
         1         1         1         1         1         1         1         1
         1         1         1         1         1         1         1         1
         1         1         1         1         1         1         1         1
         1         1         1         1         1         1         1         1
         1         1         1         1         1         1         1         1
         1         1         1         1         1         1         1         1
         1         1         1         1         1         1         1         1
         1         1         1         1         1         1         1         1
         1         1         1         1         1         1         1         1
         1         1         1         1         1         1         1         1
         1         1         1         1         1         1         1         1
         1         1         1         1         1         1         1         1
         1         1         1         1         1         1         1         1
         1         1         1         1         1         1         1         1
         1         1         1         1         1         1         1         1
         1         1         1         1         1         1         1         1
         1         1         1         1         1         1         1         1
         1         1         1         1         1         1         1         1
         1         1         1         1         1         1         1         1
         1         1         1         1         1         1         1         1
         1         1         1         1         1         1         1         1
         1         1         1         1         1         1         1         1
         1         1         1         1         1         1         1         1
         1         1         1         1         1         1         1         1
         1         1         1         1         1         1         1         1
         1         1         1         1         1         1         1         1
         1         1         1         1         1         1         1         1
         1         1         1         1         1         1         1         1
         1         1         1         1         1         1         1         1
         1         1         1         1         1         1         1         1
         1         1         1         1         1         1         1         1
         1         1         1         1         1         1         1         1
         1         1         1         1         1         1         1         1
         1         1         1         1         1         1         1         1
         1         1         1         1         1         1         1         1
         1         1         1         1         1         1         1         1
         1         1         1         1         1         1         1         1
         1         1         1         1         1         1         1         1
         1         1         1         1         1         1         1         1
         1         1         1         1         1         1         1         1
         1         1         1         1         1         1         1         1
         1         1         1         1         1         1         1         1
         1         1         1         1         1         1         1         1
         1         1         1         1         1         1         1         1
         1         1         1         1         1         1         1         1
         1         1         1         1         1         1         1         1
         1         1         1         1         1         1         1         1
         1         1         1         1         1         1         1         1
         1         1         1         1         1         1         1         1
         1         1         1         1         1         1         1         1
         1         1         1         1         1         1         1         1
         1         1         1         1         1         1         1         1
         1         1         1         1         1         1         1         1
         1         1         1         1         1         1         1         1
         1         1         1         1         1         1         1         1
         1         1         1         1         1         1         1         1
         1         1         1         1         1         1         1         1
         1         1         1         1         1         1         1         1
         1         1         1         1         1         1         1         1
         1         1         1         1         1         1         1         1
         1         1         1         1         1         1         1         1
         1         1         1         1         1         1         1         1
         1         1         1         1         1         1         1         1
         1         1         1         1         1         1         1         1
         1         1         1         1         1         1         1         1
         1         1         1         1         1         1         1         1
         1         1         1         1         1         1         1         1
         1         1         1         1         1         1         1         1
         1         1         1         1         1         1         1         1
         1         1         1         1         1         1         1         1
         1         1         1         1         1         1         1         1
         1         1         1         1         1         1         1         1
         1         1         1         1         1         1         1         1
         1         1         1         1         1         1         1         1
         1         1         1         1         1         1         1         1
         1         1         1         1         1         1         1         1
         1         1         1         1         1         1         1         1
         1         1         1         1         1         1         1         1
         1         1         1         1         1         1         1         1
         1         1         1         1         1         1         1         1
         1         1         1         1         1         1         1         1
         1         1         1         1         1         1         1         1
         1         1         1         1         1         1         1         1
         1         1         1         1         1         1         1         1
         1         1         1         1         1         1         1         1
         1         1         1         1         1         1         1         1
         1         1         1         1         1         1         1         1
         1         1         1         1         1         1         1         1
         1         1         1         1         1         1         1         1
         1         1         1         1         1         1         1         1
         1         1         1         1         1         1         1         1
         1         1         1         1         1         1         1         1
         1         1         1         1         1         1         1         1
         1         1         1         1         1         1         1         1
         1         1         1         1         1         1         1         1
         1         1         1         1         1         1         1         1
         1         1         1         1         1         1         1         1
         1         1         1         1         1         1         1         1
         1         1         1         1         1         1         1         1
         1         1         1         1         1         1         1         1
         1         1         1         1         1         1         1         1
         1         1         1         1         1         1         1         1
         1         1         1         1         1         1         1         1
         1         1         1         1         1         1         1         1
         1         1         1         1         1         1         1         1
         1         1         1         1         1         1         1         1
         1         1         1         1         1         1         1         1
         1         1         1         1         1         1         1         1
         1         1         1         1         1         1         1         1
         1         1         1         1         1         1         1         1
         1         1         1         1         1         1         1         1
         1         1         1         1         1         1         1         1
         1         1         1         1         1         1         1         1
         1         1         1         1         1         1         1         1
         1         1         1         1         1         1         1         1
         1         1         1         1         1         1         1         1
         1         1         1         1         1         1         1         1
         1         1         1         1         1         1         1         1
         1         1         1         1         1         1         1         1
         1         1         1         1         1         1         1         1
         1         1         1         1         1         1         1         1
         1         1         1         1         1         1         1         1
         1         1         1         1         1         1         1         1
         1         1         1         1         1         1         1         1
         1         1         1         1         1         1         1         1
         1         1         1         1         1         1         1         1
         1         1         1         1         1         1         1         1
         1         1         1         1         1         1         1         1
         1         1         1         1         1         1         1         1
         1         1         1         1         1         1         1         1
         1         1         1         1         1         1         1         1
         1         1         1         1         1         1         1         1
         1         1         1         1         1         1         1         1
         1         1         1         1         1         1         1         1
         1         1         1         1         1         1         1         1
         1         1         1         1         1         1         1         1
         1         1         1         1         1         1         1         1
         1         1         1         1         1         1         1         1
         1         1         1         1         1         1         1         1
         1         1         1         1         1         1         1         1
         1         1         1         1         1         1         1         1
         1         1         1         1         1         1         1         1
         1         1         1         1         1         1         1         1
         1         1         1         1         1         1         1         1
         1         1         1         1         1         1         1         1
         1         1         1         1         1         1         1         1
         1         1         1         1         1         1         1         1
         1         1         1         1         1         1         1         1
         1         1         1         1         1         1         1         1
         1         1         1         1         1         1         1         1
         1         1         1         1         1         1         1         1
         1         1         1         1         1         1         1         1
         1         1         1         1         1         1         1         1
         1         1         1         1         1         1         1         1
         1         1         1         1         1         1         1         1
         1         1         1         1         1         1         1         1
         1         1         1         1         1         1         1         1
         1         1         1         1         1         1         1         1
         1         1         1         1         1         1         1         1
         1         1         1         1         1         1         1         1
         1         1         1         1         1         1         1         1
         1         1         1         1         1         1         1         1
         1         1         1         1         1         1         1         1
         1         1         1         1         1         1         1         1
         1         1         1         1         1         1         1         1
         1         1         1         1         1         1         1         1
         1         1         1         1         1         1         1         1
         1         1         1         1         1         1         1         1
         1         1         1         1         1         1         1         1
         1         1         1         1         1         1         1         1
         1         1         1         1         1         1         1         1
         1         1         1         1         1         1         1         1
         1         1         1         1         1         1         1         1
         1         1         1         1         1         1         1         1
         1         1         1         1         1         1         1         1
         1         1         1         1         1         1         1         1
         1         1         1         1         1         1         1         1
         1         1         1         1         1         1         1         1
         1         1         1         1         1         1         1         1
         1         1         1         1         1         1         1         1
         1         1         1         1         1         1         1         1
         1         1         1         1         1         1         1         1
         1         1         1         1         1         1         1         1
         1         1         1         1         1         1         1         1
         1         1         1         1         1         1         1         1
         1         1         1         1         1         1         1         1
         1         1         1         1         1         1         1         1
         1         1         1         1         1         1         1         1
         1         1         1         1         1         1         1         1
         1         1         1         1         1         1         1         1
         1         1         1         1         1         1         1         1
         1         1         1         1         1         1         1         1
         1         1         1         1         1         1         1         1
         1         1         1         1         1         1         1         1
         1         1         1         1         1         1         1         1
         1         1         1         1         1         1         1         1
         1         1         1         1         1         1         1         1
         1         1         1         1         1         1         1         1
         1         1         1         1         1         1         1         1
         1         1         1         1         1         1         1         1
         1         1         1         1         1         1         1         1
         1         1         1         1         1         1         1         1
         1         1         1         1         1         1         1         1
         1         1         1         1         1         1         1         1
         1         1         1         1         1         1         1         1
         1         1         1         1         1         1         1         1
         1         1         1         1         1         1         1         1
         1         1         1         1         1         1         1         1
         1         1         1         1         1         1         1         1
         1         1         1         1         1         1         1         1
         1         1         1         1         1         1         1         1
         1         1         1         1         1         1         1         1
         1         1         1         1         1         1         1         1
         1         1         1         1         1         1         1         1
         1         1         1         1         1         1         1         1
         1         1         1         1         1         1         1         1
         1         1         1         1         1         1         1         1
         1         1         1         1         1         1         1         1
         1         1         1         1         1         1         1         1
         1         1         1         1         1         1         1         1
         1         1         1         1         1         1         1         1
         1         1         1         1

      2500     10000 !NUMLP NUMLPH
         3         1   F -0.300000       179.990       179.990    
         3         5   F -0.300000       179.990       179.990    
         3         9   F -0.300000       179.990       179.990    
         3        13   F -0.300000       179.990       179.990    
         3        17   F -0.300000       179.990       179.990    
         3        21   F -0.300000       179.990       179.990    
         3        25   F -0.300000       179.990       179.990    
         3        29   F -0.300000       179.990       179.990    
         3        33   F -0.300000       179.990       179.990    
         3        37   F -0.300000       179.990       179.990    
         3        41   F -0.300000       179.990       179.990    
         3        45   F -0.300000       179.990       179.990    
         3        49   F -0.300000       179.990       179.990    
         3        53   F -0.300000       179.990       179.990    
         3        57   F -0.300000       179.990       179.990    
         3        61   F -0.300000       179.990       179.990    
         3        65   F -0.300000       179.990       179.990    
         3        69   F -0.300000       179.990       179.990    
         3        73   F -0.300000       179.990       179.990    
         3        77   F -0.300000       179.990       179.990    
         3        81   F -0.300000       179.990       179.990    
         3        85   F -0.300000       179.990       179.990    
         3        89   F -0.300000       179.990       179.990    
         3        93   F -0.300000       179.990       179.990    
         3        97   F -0.300000       179.990       179.990    
         3       101   F -0.300000       179.990       179.990    
         3       105   F -0.300000       179.990       179.990    
         3       109   F -0.300000       179.990       179.990    
         3       113   F -0.300000       179.990       179.990    
         3       117   F -0.300000       179.990       179.990    
         3       121   F -0.300000       179.990       179.990    
         3       125   F -0.300000       179.990       179.990    
         3       129   F -0.300000       179.990       179.990    
         3       133   F -0.300000       179.990       179.990    
         3       137   F -0.300000       179.990       179.990    
         3       141   F -0.300000       179.990       179.990    
         3       145   F -0.300000       179.990       179.990    
         3       149   F -0.300000       179.990       179.990    
         3       153   F -0.300000       179.990       179.990    
         3       157   F -0.300000       179.990       179.990    
         3       161   F -0.300000       179.990       179.990    
         3       165   F -0.300000       179.990       179.990    
         3       169   F -0.300000       179.990       179.990    
         3       173   F -0.300000       179.990       179.990    
         3       177   F -0.300000       179.990       179.990    
         3       181   F -0.300000       179.990       179.990    
         3       185   F -0.300000       179.990       179.990    
         3       189   F -0.300000       179.990       179.990    
         3       193   F -0.300000       179.990       179.990    
         3       197   F -0.300000       179.990       179.990    
         3       201   F -0.300000       179.990       179.990    
         3       205   F -0.300000       179.990       179.990    
         3       209   F -0.300000       179.990       179.990    
         3       213   F -0.300000       179.990       179.990    
         3       217   F -0.300000       179.990       179.990    
         3       221   F -0.300000       179.990       179.990    
         3       225   F -0.300000       179.990       179.990    
         3       229   F -0.300000       179.990       179.990    
         3       233   F -0.300000       179.990       179.990    
         3       237   F -0.300000       179.990       179.990    
         3       241   F -0.300000       179.990       179.990    
         3       245   F -0.300000       179.990       179.990    
         3       249   F -0.300000       179.990       179.990    
         3       253   F -0.300000       179.990       179.990    
         3       257   F -0.300000       179.990       179.990    
         3       261   F -0.300000       179.990       179.990    
         3       265   F -0.300000       179.990       179.990    
         3       269   F -0.300000       179.990       179.990    
         3       273   F -0.300000       179.990       179.990    
         3       277   F -0.300000       179.990       179.990    
         3       281   F -0.300000       179.990       179.990    
         3       285   F -0.300000       179.990       179.990    
         3       289   F -0.300000       179.990       179.990    
         3       293   F -0.300000       179.990       179.990    
         3       297   F -0.300000       179.990       179.990    
         3       301   F -0.300000       179.990       179.990    
         3       305   F -0.300000       179.990       179.990    
         3       309   F -0.300000       179.990       179.990    
         3       313   F -0.300000       179.990       179.990    
         3       317   F -0.300000       179.990       179.990    
         3       321   F -0.300000       179.990       179.990    
         3       325   F -0.300000       179.990       179.990    
         3       329   F -0.300000       179.990       179.990    
         3       333   F -0.300000       179.990       179.990    
         3       337   F -0.300000       179.990       179.990    
         3       341   F -0.300000       179.990       179.990    
         3       345   F -0.300000       179.990       179.990    
         3       349   F -0.300000       179.990       179.990    
         3       353   F -0.300000       179.990       179.990    
         3       357   F -0.300000       179.990       179.990    
         3       361   F -0.300000       179.990       179.990    
         3       365   F -0.300000       179.990       179.990    
         3       369   F -0.300000       179.990       179.990    
         3       373   F -0.300000       179.990       179.990    
         3       377   F -0.300000       179.990       179.990    
         3       381   F -0.300000       179.990       179.990    
         3       385   F -0.300000       179.990       179.990    
         3       389   F -0.300000       179.990       179.990    
         3       393   F -0.300000       179.990       179.990    
         3       397   F -0.300000       179.990       179.990    
         3       401   F -0.300000       179.990       179.990    
         3       405   F -0.300000       179.990       179.990    
         3       409   F -0.300000       179.990       179.990    
         3       413   F -0.300000       179.990       179.990    
         3       417   F -0.300000       179.990       179.990    
         3       421   F -0.300000       179.990       179.990    
         3       425   F -0.300000       179.990       179.990    
         3       429   F -0.300000       179.990       179.990    
         3       433   F -0.300000       179.990       179.990    
         3       437   F -0.300000       179.990       179.990    
         3       441   F -0.300000       179.990       179.990    
         3       445   F -0.300000       179.990       179.990    
         3       449   F -0.300000       179.990       179.990    
         3       453   F -0.300000       179.990       179.990    
         3       457   F -0.300000       179.990       179.990    
         3       461   F -0.300000       179.990       179.990    
         3       465   F -0.300000       179.990       179.990    
         3       469   F -0.300000       179.990       179.990    
         3       473   F -0.300000       179.990       179.990    
         3       477   F -0.300000       179.990       179.990    
         3       481   F -0.300000       179.990       179.990    
         3       485   F -0.300000       179.990       179.990    
         3       489   F -0.300000       179.990       179.990    
         3       493   F -0.300000       179.990       179.990    
         3       497   F -0.300000       179.990       179.990    
         3       501   F -0.300000       179.990       179.990    
         3       505   F -0.300000       179.990       179.990    
         3       509   F -0.300000       179.990       179.990    
         3       513   F -0.300000       179.990       179.990    
         3       517   F -0.300000       179.990       179.990    
         3       521   F -0.300000       179.990       179.990    
         3       525   F -0.300000       179.990       179.990    
         3       529   F -0.300000       179.990       179.990    
         3       533   F -0.300000       179.990       179.990    
         3       537   F -0.300000       179.990       179.990    
         3       541   F  0.350000       110.000       0.00000    
         3       545   F  0.350000       110.000       180.000    
         3       549   F  0.350000       110.000       0.00000    
         3       553   F  0.350000       110.000       180.000    
         3       557   F  0.350000       110.000       0.00000    
         3       561   F  0.350000       110.000       180.000    
         3       565   F  0.350000       110.000       0.00000    
         3       569   F  0.350000       110.000       180.000    
         3       573   F  0.350000       110.000       0.00000    
         3       577   F  0.350000       110.000       180.000    
         3       581   F  0.350000       110.000       0.00000    
         3       585   F  0.350000       110.000       180.000    
         3       589   F  0.350000       110.000       0.00000    
         3       593   F  0.350000       110.000       180.000    
         3       597   F  0.350000       110.000       0.00000    
         3       601   F  0.350000       110.000       180.000    
         3       605   F  0.350000       110.000       0.00000    
         3       609   F  0.350000       110.000       180.000    
         3       613   F  0.350000       110.000       0.00000    
         3       617   F  0.350000       110.000       180.000    
         3       621   F  0.350000       110.000       0.00000    
         3       625   F  0.350000       110.000       180.000    
         3       629   F  0.350000       110.000       0.00000    
         3       633   F  0.350000       110.000       180.000    
         3       637   F  0.350000       110.000       0.00000    
         3       641   F  0.350000       110.000       180.000    
         3       645   F  0.350000       110.000       0.00000    
         3       649   F  0.350000       110.000       180.000    
         3       653   F  0.350000       110.000       0.00000    
         3       657   F  0.350000       110.000       180.000    
         3       661   F  0.350000       110.000       0.00000    
         3       665   F  0.350000       110.000       180.000    
         3       669   F  0.350000       110.000       0.00000    
         3       673   F  0.350000       110.000       180.000    
         3       677   F  0.350000       110.000       0.00000    
         3       681   F  0.350000       110.000       180.000    
         3       685   F  0.350000       110.000       0.00000    
         3       689   F  0.350000       110.000       180.000    
         3       693   F  0.350000       110.000       0.00000    
         3       697   F  0.350000       110.000       180.000    
         3       701   F  0.350000       110.000       0.00000    
         3       705   F  0.350000       110.000       180.000    
         3       709   F  0.350000       110.000       0.00000    
         3       713   F  0.350000       110.000       180.000    
         3       717   F  0.350000       110.000       0.00000    
         3       721   F  0.350000       110.000       180.000    
         3       725   F  0.350000       110.000       0.00000    
         3       729   F  0.350000       110.000       180.000    
         3       733   F  0.350000       110.000       0.00000    
         3       737   F  0.350000       110.000       180.000    
         3       741   F  0.350000       110.000       0.00000    
         3       745   F  0.350000       110.000       180.000    
         3       749   F  0.350000       110.000       0.00000    
         3       753   F  0.350000       110.000       180.000    
         3       757   F  0.350000       110.000       0.00000    
         3       761   F  0.350000       110.000       180.000    
         3       765   F  0.350000       110.000       0.00000    
         3       769   F  0.350000       110.000       180.000    
         3       773   F  0.350000       110.000       0.00000    
         3       777   F  0.350000       110.000       180.000    
         3       781   F  0.350000       110.000       0.00000    
         3       785   F  0.350000       110.000       180.000    
         3       789   F  0.350000       110.000       0.00000    
         3       793   F  0.350000       110.000       180.000    
         3       797   F  0.350000       110.000       0.00000    
         3       801   F  0.350000       110.000       180.000    
         3       805   F  0.350000       110.000       0.00000    
         3       809   F  0.350000       110.000       180.000    
         3       813   F  0.350000       110.000       0.00000    
         3       817   F  0.350000       110.000       180.000    
         3       821   F  0.350000       110.000       0.00000    
         3       825   F  0.350000       110.000       180.000    
         3       829   F  0.350000       110.000       0.00000    
         3       833   F  0.350000       110.000       180.000    
         3       837   F  0.350000       110.000       0.00000    
         3       841   F  0.350000       110.000       180.000    
         3       845   F  0.350000       110.000       0.00000    
         3       849   F  0.350000       110.000       180.000    
         3       853   F  0.350000       110.000       0.00000    
         3       857   F  0.350000       110.000       180.000    
         3       861   F  0.350000       110.000       0.00000    
         3       865   F  0.350000       110.000       180.000    
         3       869   F  0.350000       110.000       0.00000    
         3       873   F  0.350000       110.000       180.000    
         3       877   F  0.350000       110.000       0.00000    
         3       881   F  0.350000       110.000       180.000    
         3       885   F  0.350000       110.000       0.00000    
         3       889   F  0.350000       110.000       180.000    
         3       893   F  0.350000       110.000       0.00000    
         3       897   F  0.350000       110.000       180.000    
         3       901   F  0.350000       110.000       0.00000    
         3       905   F  0.350000       110.000       180.000    
         3       909   F  0.350000       110.000       0.00000    
         3       913   F  0.350000       110.000       180.000    
         3       917   F  0.350000       110.000       0.00000    
         3       921   F  0.350000       110.000       180.000    
         3       925   F  0.350000       110.000       0.00000    
         3       929   F  0.350000       110.000       180.000    
         3       933   F  0.350000       110.000       0.00000    
         3       937   F  0.350000       110.000       180.000    
         3       941   F  0.350000       110.000       0.00000    
         3       945   F  0.350000       110.000       180.000    
         3       949   F  0.350000       110.000       0.00000    
         3       953   F  0.350000       110.000       180.000    
         3       957   F  0.350000       110.000       0.00000    
         3       961   F  0.350000       110.000       180.000    
         3       965   F  0.350000       110.000       0.00000    
         3       969   F  0.350000       110.000       180.000    
         3       973   F  0.350000       110.000       0.00000    
         3       977   F  0.350000       110.000       180.000    
         3       981   F  0.350000       110.000       0.00000    
         3       985   F  0.350000       110.000       180.000    
         3       989   F  0.350000       110.000       0.00000    
         3       993   F  0.350000       110.000       180.000    
         3       997   F  0.350000       110.000       0.00000    
         3      1001   F  0.350000       110.000       180.000    
         3      1005   F  0.350000       110.000       0.00000    
         3      1009   F  0.350000       110.000       180.000    
         3      1013   F  0.350000       110.000       0.00000    
         3      1017   F  0.350000       110.000       180.000    
         3      1021   F  0.350000       110.000       0.00000    
         3      1025   F  0.350000       110.000       180.000    
         3      1029   F  0.350000       110.000       0.00000    
         3      1033   F  0.350000       110.000       180.000    
         3      1037   F  0.350000       110.000       0.00000    
         3      1041   F  0.350000       110.000       180.000    
         3      1045   F  0.350000       110.000       0.00000    
         3      1049   F  0.350000       110.000       180.000    
         3      1053   F  0.350000       110.000       0.00000    
         3      1057   F  0.350000       110.000       180.000    
         3      1061   F  0.350000       110.000       0.00000    
         3      1065   F  0.350000       110.000       180.000    
         3      1069   F  0.350000       110.000       0.00000    
         3      1073   F  0.350000       110.000       180.000    
         3      1077   F  0.350000       110.000       0.00000    
         3      1081   F  0.350000       110.000       180.000    
         3      1085   F  0.350000       110.000       0.00000    
         3      1089   F  0.350000       110.000       180.000    
         3      1093   F  0.350000       110.000       0.00000    
         3      1097   F  0.350000       110.000       180.000    
         3      1101   F  0.350000       110.000       0.00000    
         3      1105   F  0.350000       110.000       180.000    
         3      1109   F  0.350000       110.000       0.00000    
         3      1113   F  0.350000       110.000       180.000    
         3      1117   F  0.350000       110.000       0.00000    
         3      1121   F  0.350000       110.000       180.000    
         3      1125   F  0.350000       110.000       0.00000    
         3      1129   F  0.350000       110.000       180.000    
         3      1133   F  0.350000       110.000       0.00000    
         3      1137   F  0.350000       110.000       180.000    
         3      1141   F  0.350000       110.000       0.00000    
         3      1145   F  0.350000       110.000       180.000    
         3      1149   F  0.350000       110.000       0.00000    
         3      1153   F  0.350000       110.000       180.000    
         3      1157   F  0.350000       110.000       0.00000    
         3      1161   F  0.350000       110.000       180.000    
         3      1165   F  0.350000       110.000       0.00000    
         3      1169   F  0.350000       110.000       180.000    
         3      1173   F  0.350000       110.000       0.00000    
         3      1177   F  0.350000       110.000       180.000    
         3      1181   F  0.350000       110.000       0.00000    
         3      1185   F  0.350000       110.000       180.000    
         3      1189   F  0.350000       110.000       0.00000    
         3      1193   F  0.350000       110.000       180.000    
         3      1197   F  0.350000       110.000       0.00000    
         3      1201   F  0.350000       110.000       180.000    
         3      1205   F  0.350000       110.000       0.00000    
         3      1209   F  0.350000       110.000       180.000    
         3      1213   F  0.350000       110.000       0.00000    
         3      1217   F  0.350000       110.000       180.000    
         3      1221   F  0.350000       110.000       0.00000    
         3      1225   F  0.350000       110.000       180.000    
         3      1229   F  0.350000       110.000       0.00000    
         3      1233   F  0.350000       110.000       180.000    
         3      1237   F  0.350000       110.000       0.00000    
         3      1241   F  0.350000       110.000       180.000    
         3      1245   F  0.350000       110.000       0.00000    
         3      1249   F  0.350000       110.000       180.000    
         3      1253   F  0.350000       110.000       0.00000    
         3      1257   F  0.350000       110.000       180.000    
         3      1261   F  0.350000       110.000       0.00000    
         3      1265   F  0.350000       110.000       180.000    
         3      1269   F  0.350000       110.000       0.00000    
         3      1273   F  0.350000       110.000       180.000    
         3      1277   F  0.350000       110.000       0.00000    
         3      1281   F  0.350000       110.000       180.000    
         3      1285   F  0.350000       110.000       0.00000    
         3      1289   F  0.350000       110.000       180.000    
         3      1293   F  0.350000       110.000       0.00000    
         3      1297   F  0.350000       110.000       180.000    
         3      1301   F  0.350000       110.000       0.00000    
         3      1305   F  0.350000       110.000       180.000    
         3      1309   F  0.350000       110.000       0.00000    
         3      1313   F  0.350000       110.000       180.000    
         3      1317   F  0.350000       110.000       0.00000    
         3      1321   F  0.350000       110.000       180.000    
         3      1325   F  0.350000       110.000       0.00000    
         3      1329   F  0.350000       110.000       180.000    
         3      1333   F  0.350000       110.000       0.00000    
         3      1337   F  0.350000       110.000       180.000    
         3      1341   F  0.350000       110.000       0.00000    
         3      1345   F  0.350000       110.000       180.000    
         3      1349   F  0.350000       110.000       0.00000    
         3      1353   F  0.350000       110.000       180.000    
         3      1357   F  0.350000       110.000       0.00000    
         3      1361   F  0.350000       110.000       180.000    
         3      1365   F  0.350000       110.000       0.00000    
         3      1369   F  0.350000       110.000       180.000    
         3      1373   F  0.350000       110.000       0.00000    
         3      1377   F  0.350000       110.000       180.000    
         3      1381   F  0.350000       110.000       0.00000    
         3      1385   F  0.350000       110.000       180.000    
         3      1389   F  0.350000       110.000       0.00000    
         3      1393   F  0.350000       110.000       180.000    
         3      1397   F  0.350000       110.000       0.00000    
         3      1401   F  0.350000       110.000       180.000    
         3      1405   F  0.350000       110.000       0.00000    
         3      1409   F  0.350000       110.000       180.000    
         3      1413   F  0.350000       110.000       0.00000    
         3      1417   F  0.350000       110.000       180.000    
         3      1421   F  0.350000       110.000       0.00000    
         3      1425   F  0.350000       110.000       180.000    
         3      1429   F  0.350000       110.000       0.00000    
         3      1433   F  0.350000       110.000       180.000    
         3      1437   F  0.350000       110.000       0.00000    
         3      1441   F  0.350000       110.000       180.000    
         3      1445   F  0.350000       110.000       0.00000    
         3      1449   F  0.350000       110.000       180.000    
         3      1453   F  0.350000       110.000       0.00000    
         3      1457   F  0.350000       110.000       180.000    
         3      1461   F  0.350000       110.000       0.00000    
         3      1465   F  0.350000       110.000       180.000    
         3      1469   F  0.350000       110.000       0.00000    
         3      1473   F  0.350000       110.000       180.000    
         3      1477   F  0.350000       110.000       0.00000    
         3      1481   F  0.350000       110.000       180.000    
         3      1485   F  0.350000       110.000       0.00000    
         3      1489   F  0.350000       110.000       180.000    
         3      1493   F  0.350000       110.000       0.00000    
         3      1497   F  0.350000       110.000       180.000    
         3      1501   F  0.350000       110.000       0.00000    
         3      1505   F  0.350000       110.000       180.000    
         3      1509   F  0.350000       110.000       0.00000    
         3      1513   F  0.350000       110.000       180.000    
         3      1517   F  0.350000       110.000       0.00000    
         3      1521   F  0.350000       110.000       180.000    
         3      1525   F  0.350000       110.000       0.00000    
         3      1529   F  0.350000       110.000       180.000    
         3      1533   F  0.350000       110.000       0.00000    
         3      1537   F  0.350000       110.000       180.000    
         3      1541   F  0.350000       110.000       0.00000    
         3      1545   F  0.350000       110.000       180.000    
         3      1549   F  0.350000       110.000       0.00000    
         3      1553   F  0.350000       110.000       180.000    
         3      1557   F  0.350000       110.000       0.00000    
         3      1561   F  0.350000       110.000       180.000    
         3      1565   F  0.350000       110.000       0.00000    
         3      1569   F  0.350000       110.000       180.000    
         3      1573   F  0.350000       110.000       0.00000    
         3      1577   F  0.350000       110.000       180.000    
         3      1581   F  0.350000       110.000       0.00000    
         3      1585   F  0.350000       110.000       180.000    
         3      1589   F  0.350000       110.000       0.00000    
         3      1593   F  0.350000       110.000       180.000    
         3      1597   F  0.350000       110.000       0.00000    
         3      1601   F  0.350000       110.000       180.000    
         3      1605   F  0.350000       110.000       0.00000    
         3      1609   F  0.350000       110.000       180.000    
         3      1613   F  0.350000       110.000       0.00000    
         3      1617   F  0.350000       110.000       180.000    
         3      1621   F  0.350000       110.000       0.00000    
         3      1625   F  0.350000       110.000       180.000    
         3      1629   F  0.350000       110.000       0.00000    
         3      1633   F  0.350000       110.000       180.000    
         3      1637   F  0.350000       110.000       0.00000    
         3      1641   F  0.350000       110.000       180.000    
         3      1645   F  0.350000       110.000       0.00000    
         3      1649   F  0.350000       110.000       180.000    
         3      1653   F  0.350000       110.000       0.00000    
         3      1657   F  0.350000       110.000       180.000    
         3      1661   F  0.350000       110.000       0.00000    
         3      1665   F  0.350000       110.000       180.000    
         3      1669   F  0.350000       110.000       0.00000    
         3      1673   F  0.350000       110.000       180.000    
         3      1677   F  0.350000       110.000       0.00000    
         3      1681   F  0.350000       110.000       180.000    
         3      1685   F  0.350000       110.000       0.00000    
         3      1689   F  0.350000       110.000       180.000    
         3      1693   F  0.350000       110.000       0.00000    
         3      1697   F  0.350000       110.000       180.000    
         3      1701   F  0.350000       110.000       0.00000    
         3      1705   F  0.350000       110.000       180.000    
         3      1709   F  0.350000       110.000       0.00000    
         3      1713   F  0.350000       110.000       180.000    
         3      1717   F  0.350000       110.000       0.00000    
         3      1721   F  0.350000       110.000       180.000    
         3      1725   F  0.350000       110.000       0.00000    
         3      1729   F  0.350000       110.000       180.000    
         3      1733   F  0.350000       110.000       0.00000    
         3      1737   F  0.350000       110.000       180.000    
         3      1741   F  0.350000       110.000       0.00000    
         3      1745   F  0.350000       110.000       180.000    
         3      1749   F  0.350000       110.000       0.00000    
         3      1753   F  0.350000       110.000       180.000    
         3      1757   F  0.350000       110.000       0.00000    
         3      1761   F  0.350000       110.000       180.000    
         3      1765   F  0.350000       110.000       0.00000    
         3      1769   F  0.350000       110.000       180.000    
         3      1773   F  0.350000       110.000       0.00000    
         3      1777   F  0.350000       110.000       180.000    
         3      1781   F  0.350000       110.000       0.00000    
         3      1785   F  0.350000       110.000       180.000    
         3      1789   F  0.350000       110.000       0.00000    
         3      1793   F  0.350000       110.000       180.000    
         3      1797   F  0.350000       110.000       0.00000    
         3      1801   F  0.350000       110.000       180.000    
         3      1805   F  0.350000       110.000       0.00000    
         3      1809   F  0.350000       110.000       180.000    
         3      1813   F  0.350000       110.000       0.00000    
         3      1817   F  0.350000       110.000       180.000    
         3      1821   F  0.350000       110.000       0.00000    
         3      1825   F  0.350000       110.000       180.000    
         3      1829   F  0.350000       110.000       0.00000    
         3      1833   F  0.350000       110.000       180.000    
         3      1837   F  0.350000       110.000       0.00000    
         3      1841   F  0.350000       110.000       180.000    
         3      1845   F  0.350000       110.000       0.00000    
         3      1849   F  0.350000       110.000       180.000    
         3      1853   F  0.350000       110.000       0.00000    
         3      1857   F  0.350000       110.000       180.000    
         3      1861   F  0.350000       110.000       0.00000    
         3      1865   F  0.350000       110.000       180.000    
         3      1869   F  0.350000       110.000       0.00000    
         3      1873   F  0.350000       110.000       180.000    
         3      1877   F  0.350000       110.000       0.00000    
         3      1881   F  0.350000       110.000       180.000    
         3      1885   F  0.350000       110.000       0.00000    
         3      1889   F  0.350000       110.000       180.000    
         3      1893   F  0.350000       110.000       0.00000    
         3      1897   F  0.350000       110.000       180.000    
         3      1901   F  0.350000       110.000       0.00000    
         3      1905   F  0.350000       110.000       180.000    
         3      1909   F  0.350000       110.000       0.00000    
         3      1913   F  0.350000       110.000       180.000    
         3      1917   F  0.350000       110.000       0.00000    
         3      1921   F  0.350000       110.000       180.000    
         3      1925   F  0.350000       110.000       0.00000    
         3      1929   F  0.350000       110.000       180.000    
         3      1933   F  0.350000       110.000       0.00000    
         3      1937   F  0.350000       110.000       180.000    
         3      1941   F  0.350000       110.000       0.00000    
         3      1945   F  0.350000       110.000       180.000    
         3      1949   F  0.350000       110.000       0.00000    
         3      1953   F  0.350000       110.000       180.000    
         3      1957   F  0.350000       110.000       0.00000    
         3      1961   F  0.350000       110.000       180.000    
         3      1965   F  0.350000       110.000       0.00000    
         3      1969   F  0.350000       110.000       180.000    
         3      1973   F  0.350000       110.000       0.00000    
         3      1977   F  0.350000       110.000       180.000    
         3      1981   F  0.350000       110.000       0.00000    
         3      1985   F  0.350000       110.000       180.000    
         3      1989   F  0.350000       110.000       0.00000    
         3      1993   F  0.350000       110.000       180.000    
         3      1997   F  0.350000       110.000       0.00000    
         3      2001   F  0.350000       110.000       180.000    
         3      2005   F  0.350000       110.000       0.00000    
         3      2009   F  0.350000       110.000       180.000    
         3      2013   F  0.350000       110.000       0.00000    
         3      2017   F  0.350000       110.000       180.000    
         3      2021   F  0.350000       110.000       0.00000    
         3      2025   F  0.350000       110.000       180.000    
         3      2029   F  0.350000       110.000       0.00000    
         3      2033   F  0.350000       110.000       180.000    
         3      2037   F  0.350000       110.000       0.00000    
         3      2041   F  0.350000       110.000       180.000    
         3      2045   F  0.350000       110.000       0.00000    
         3      2049   F  0.350000       110.000       180.000    
         3      2053   F  0.350000       110.000       0.00000    
         3      2057   F  0.350000       110.000       180.000    
         3      2061   F  0.350000       110.000       0.00000    
         3      2065   F  0.350000       110.000       180.000    
         3      2069   F  0.350000       110.000       0.00000    
         3      2073   F  0.350000       110.000       180.000    
         3      2077   F  0.350000       110.000       0.00000    
         3      2081   F  0.350000       110.000       180.000    
         3      2085   F  0.350000       110.000       0.00000    
         3      2089   F  0.350000       110.000       180.000    
         3      2093   F  0.350000       110.000       0.00000    
         3      2097   F  0.350000       110.000       180.000    
         3      2101   F  0.350000       110.000       0.00000    
         3      2105   F  0.350000       110.000       180.000    
         3      2109   F  0.350000       110.000       0.00000    
         3      2113   F  0.350000       110.000       180.000    
         3      2117   F  0.350000       110.000       0.00000    
         3      2121   F  0.350000       110.000       180.000    
         3      2125   F  0.350000       110.000       0.00000    
         3      2129   F  0.350000       110.000       180.000    
         3      2133   F  0.350000       110.000       0.00000    
         3      2137   F  0.350000       110.000       180.000    
         3      2141   F  0.350000       110.000       0.00000    
         3      2145   F  0.350000       110.000       180.000    
         3      2149   F  0.350000       110.000       0.00000    
         3      2153   F  0.350000       110.000       180.000    
         3      2157   F  0.350000       110.000       0.00000    
         3      2161   F  0.350000       110.000       180.000    
         3      2165   F  0.350000       110.000       0.00000    
         3      2169   F  0.350000       110.000       180.000    
         3      2173   F  0.350000       110.000       0.00000    
         3      2177   F  0.350000       110.000       180.000    
         3      2181   F  0.350000       110.000       0.00000    
         3      2185   F  0.350000       110.000       180.000    
         3      2189   F  0.350000       110.000       0.00000    
         3      2193   F  0.350000       110.000       180.000    
         3      2197   F  0.350000       110.000       0.00000    
         3      2201   F  0.350000       110.000       180.000    
         3      2205   F  0.350000       110.000       0.00000    
         3      2209   F  0.350000       110.000       180.000    
         3      2213   F  0.350000       110.000       0.00000    
         3      2217   F  0.350000       110.000       180.000    
         3      2221   F  0.350000       110.000       0.00000    
         3      2225   F  0.350000       110.000       180.000    
         3      2229   F  0.350000       110.000       0.00000    
         3      2233   F  0.350000       110.000       180.000    
         3      2237   F  0.350000       110.000       0.00000    
         3      2241   F  0.350000       110.000       180.000    
         3      2245   F  0.350000       110.000       0.00000    
         3      2249   F  0.350000       110.000       180.000    
         3      2253   F  0.350000       110.000       0.00000    
         3      2257   F  0.350000       110.000       180.000    
         3      2261   F  0.350000       110.000       0.00000    
         3      2265   F  0.350000       110.000       180.000    
         3      2269   F  0.350000       110.000       0.00000    
         3      2273   F  0.350000       110.000       180.000    
         3      2277   F  0.350000       110.000       0.00000    
         3      2281   F  0.350000       110.000       180.000    
         3      2285   F  0.350000       110.000       0.00000    
         3      2289   F  0.350000       110.000       180.000    
         3      2293   F  0.350000       110.000       0.00000    
         3      2297   F  0.350000       110.000       180.000    
         3      2301   F  0.350000       110.000       0.00000    
         3      2305   F  0.350000       110.000       180.000    
         3      2309   F  0.350000       110.000       0.00000    
         3      2313   F  0.350000       110.000       180.000    
         3      2317   F  0.350000       110.000       0.00000    
         3      2321   F  0.350000       110.000       180.000    
         3      2325   F  0.350000       110.000       0.00000    
         3      2329   F  0.350000       110.000       180.000    
         3      2333   F  0.350000       110.000       0.00000    
         3      2337   F  0.350000       110.000       180.000    
         3      2341   F  0.350000       110.000       0.00000    
         3      2345   F  0.350000       110.000       180.000    
         3      2349   F  0.350000       110.000       0.00000    
         3      2353   F  0.350000       110.000       180.000    
         3      2357   F  0.350000       110.000       0.00000    
         3      2361   F  0.350000       110.000       180.000    
         3      2365   F  0.350000       110.000       0.00000    
         3      2369   F  0.350000       110.000       180.000    
         3      2373   F  0.350000       110.000       0.00000    
         3      2377   F  0.350000       110.000       180.000    
         3      2381   F  0.350000       110.000       0.00000    
         3      2385   F  0.350000       110.000       180.000    
         3      2389   F  0.350000       110.000       0.00000    
         3      2393   F  0.350000       110.000       180.000    
         3      2397   F  0.350000       110.000       0.00000    
         3      2401   F  0.350000       110.000       180.000    
         3      2405   F  0.350000       110.000       0.00000    
         3      2409   F  0.350000       110.000       180.000    
         3      2413   F  0.350000       110.000       0.00000    
         3      2417   F  0.350000       110.000       180.000    
         3      2421   F  0.350000       110.000       0.00000    
         3      2425   F  0.350000       110.000       180.000    
         3      2429   F  0.350000       110.000       0.00000    
         3      2433   F  0.350000       110.000       180.000    
         3      2437   F  0.350000       110.000       0.00000    
         3      2441   F  0.350000       110.000       180.000    
         3      2445   F  0.350000       110.000       0.00000    
         3      2449   F  0.350000       110.000       180.000    
         3      2453   F  0.350000       110.000       0.00000    
         3      2457   F  0.350000       110.000       180.000    
         3      2461   F  0.350000       110.000       0.00000    
         3      2465   F  0.350000       110.000       180.000    
         3      2469   F  0.350000       110.000       0.00000    
         3      2473   F  0.350000       110.000       180.000    
         3      2477   F  0.350000       110.000       0.00000    
         3      2481   F  0.350000       110.000       180.000    
         3      2485   F  0.350000       110.000       0.00000    
         3      2489   F  0.350000       110.000       180.000    
         3      2493   F  0.350000       110.000       0.00000    
         3      2497   F  0.350000       110.000       180.000    
         3      2501   F  0.350000       110.000       0.00000    
         3      2505   F  0.350000       110.000       180.000    
         3      2509   F  0.350000       110.000       0.00000    
         3      2513   F  0.350000       110.000       180.000    
         3      2517   F  0.350000       110.000       0.00000    
         3      2521   F  0.350000       110.000       180.000    
         3      2525   F  0.350000       110.000       0.00000    
         3      2529   F  0.350000       110.000       180.000    
         3      2533   F  0.350000       110.000       0.00000    
         3      2537   F  0.350000       110.000       180.000    
         3      2541   F  0.350000       110.000       0.00000    
         3      2545   F  0.350000       110.000       180.000    
         3      2549   F  0.350000       110.000       0.00000    
         3      2553   F  0.350000       110.000       180.000    
         3      2557   F  0.350000       110.000       0.00000    
         3      2561   F  0.350000       110.000       180.000    
         3      2565   F  0.350000       110.000       0.00000    
         3      2569   F  0.350000       110.000       180.000    
         3      2573   F  0.350000       110.000       0.00000    
         3      2577   F  0.350000       110.000       180.000    
         3      2581   F  0.350000       110.000       0.00000    
         3      2585   F  0.350000       110.000       180.000    
         3      2589   F  0.350000       110.000       0.00000    
         3      2593   F  0.350000       110.000       180.000    
         3      2597   F  0.350000       110.000       0.00000    
         3      2601   F  0.350000       110.000       180.000    
         3      2605   F  0.350000       110.000       0.00000    
         3      2609   F  0.350000       110.000       180.000    
         3      2613   F  0.350000       110.000       0.00000    
         3      2617   F  0.350000       110.000       180.000    
         3      2621   F  0.350000       110.000       0.00000    
         3      2625   F  0.350000       110.000       180.000    
         3      2629   F  0.350000       110.000       0.00000    
         3      2633   F  0.350000       110.000       180.000    
         3      2637   F  0.350000       110.000       0.00000    
         3      2641   F  0.350000       110.000       180.000    
         3      2645   F  0.350000       110.000       0.00000    
         3      2649   F  0.350000       110.000       180.000    
         3      2653   F  0.350000       110.000       0.00000    
         3      2657   F  0.350000       110.000       180.000    
         3      2661   F  0.350000       110.000       0.00000    
         3      2665   F  0.350000       110.000       180.000    
         3      2669   F  0.350000       110.000       0.00000    
         3      2673   F  0.350000       110.000       180.000    
         3      2677   F  0.350000       110.000       0.00000    
         3      2681   F  0.350000       110.000       180.000    
         3      2685   F  0.350000       110.000       0.00000    
         3      2689   F  0.350000       110.000       180.000    
         3      2693   F  0.350000       110.000       0.00000    
         3      2697   F  0.350000       110.000       180.000    
         3      2701   F -0.300000       179.990       179.990    
         3      2705   F -0.300000       179.990       179.990    
         3      2709   F -0.300000       179.990       179.990    
         3      2713   F -0.300000       179.990       179.990    
         3      2717   F -0.300000       179.990       179.990    
         3      2721   F -0.300000       179.990       179.990    
         3      2725   F -0.300000       179.990       179.990    
         3      2729   F -0.300000       179.990       179.990    
         3      2733   F -0.300000       179.990       179.990    
         3      2737   F -0.300000       179.990       179.990    
         3      2741   F -0.300000       179.990       179.990    
         3      2745   F -0.300000       179.990       179.990    
         3      2749   F -0.300000       179.990       179.990    
         3      2753   F -0.300000       179.990       179.990    
         3      2757   F -0.300000       179.990       179.990    
         3      2761   F -0.300000       179.990       179.990    
         3      2765   F -0.300000       179.990       179.990    
         3      2769   F -0.300000       179.990       179.990    
         3      2773   F -0.300000       179.990       179.990    
         3      2777   F -0.300000       179.990       179.990    
         3      2781   F -0.300000       179.990       179.990    
         3      2785   F -0.300000       179.990       179.990    
         3      2789   F -0.300000       179.990       179.990    
         3      2793   F -0.300000       179.990       179.990    
         3      2797   F -0.300000       179.990       179.990    
         3      2801   F -0.300000       179.990       179.990    
         3      2805   F -0.300000       179.990       179.990    
         3      2809   F -0.300000       179.990       179.990    
         3      2813   F -0.300000       179.990       179.990    
         3      2817   F -0.300000       179.990       179.990    
         3      2821   F -0.300000       179.990       179.990    
         3      2825   F -0.300000       179.990       179.990    
         3      2829   F -0.300000       179.990       179.990    
         3      2833   F -0.300000       179.990       179.990    
         3      2837   F -0.300000       179.990       179.990    
         3      2841   F -0.300000       179.990       179.990    
         3      2845   F -0.300000       179.990       179.990    
         3      2849   F -0.300000       179.990       179.990    
         3      2853   F -0.300000       179.990       179.990    
         3      2857   F -0.300000       179.990       179.990    
         3      2861   F -0.300000       179.990       179.990    
         3      2865   F -0.300000       179.990       179.990    
         3      2869   F -0.300000       179.990       179.990    
         3      2873   F -0.300000       179.990       179.990    
         3      2877   F -0.300000       179.990       179.990    
         3      2881   F -0.300000       179.990       179.990    
         3      2885   F -0.300000       179.990       179.990    
         3      2889   F -0.300000       179.990       179.990    
         3      2893   F -0.300000       179.990       179.990    
         3      2897   F -0.300000       179.990       179.990    
         3      2901   F -0.300000       179.990       179.990    
         3      2905   F -0.300000       179.990       179.990    
         3      2909   F -0.300000       179.990       179.990    
         3      2913   F -0.300000       179.990       179.990    
         3      2917   F -0.300000       179.990       179.990    
         3      2921   F -0.300000       179.990       179.990    
         3      2925   F -0.300000       179.990       179.990    
         3      2929   F -0.300000       179.990       179.990    
         3      2933   F -0.300000       179.990       179.990    
         3      2937   F -0.300000       179.990       179.990    
         3      2941   F -0.300000       179.990       179.990    
         3      2945   F -0.300000       179.990       179.990    
         3      2949   F -0.300000       179.990       179.990    
         3      2953   F -0.300000       179.990       179.990    
         3      2957   F -0.300000       179.990       179.990    
         3      2961   F -0.300000       179.990       179.990    
         3      2965   F -0.300000       179.990       179.990    
         3      2969   F -0.300000       179.990       179.990    
         3      2973   F -0.300000       179.990       179.990    
         3      2977   F -0.300000       179.990       179.990    
         3      2981   F -0.300000       179.990       179.990    
         3      2985   F -0.300000       179.990       179.990    
         3      2989   F -0.300000       179.990       179.990    
         3      2993   F -0.300000       179.990       179.990    
         3      2997   F -0.300000       179.990       179.990    
         3      3001   F -0.300000       179.990       179.990    
         3      3005   F -0.300000       179.990       179.990    
         3      3009   F -0.300000       179.990       179.990    
         3      3013   F -0.300000       179.990       179.990    
         3      3017   F -0.300000       179.990       179.990    
         3      3021   F -0.300000       179.990       179.990    
         3      3025   F -0.300000       179.990       179.990    
         3      3029   F -0.300000       179.990       179.990    
         3      3033   F -0.300000       179.990       179.990    
         3      3037   F -0.300000       179.990       179.990    
         3      3041   F -0.300000       179.990       179.990    
         3      3045   F -0.300000       179.990       179.990    
         3      3049   F -0.300000       179.990       179.990    
         3      3053   F -0.300000       179.990       179.990    
         3      3057   F -0.300000       179.990       179.990    
         3      3061   F -0.300000       179.990       179.990    
         3      3065   F -0.300000       179.990       179.990    
         3      3069   F -0.300000       179.990       179.990    
         3      3073   F -0.300000       179.990       179.990    
         3      3077   F -0.300000       179.990       179.990    
         3      3081   F -0.300000       179.990       179.990    
         3      3085   F -0.300000       179.990       179.990    
         3      3089   F -0.300000       179.990       179.990    
         3      3093   F -0.300000       179.990       179.990    
         3      3097   F -0.300000       179.990       179.990    
         3      3101   F -0.300000       179.990       179.990    
         3      3105   F -0.300000       179.990       179.990    
         3      3109   F -0.300000       179.990       179.990    
         3      3113   F -0.300000       179.990       179.990    
         3      3117   F -0.300000       179.990       179.990    
         3      3121   F -0.300000       179.990       179.990    
         3      3125   F -0.300000       179.990       179.990    
         3      3129   F -0.300000       179.990       179.990    
         3      3133   F -0.300000       179.990       179.990    
         3      3137   F -0.300000       179.990       179.990    
         3      3141   F -0.300000       179.990       179.990    
         3      3145   F -0.300000       179.990       179.990    
         3      3149   F -0.300000       179.990       179.990    
         3      3153   F -0.300000       179.990       179.990    
         3      3157   F -0.300000       179.990       179.990    
         3      3161   F -0.300000       179.990       179.990    
         3      3165   F -0.300000       179.990       179.990    
         3      3169   F -0.300000       179.990       179.990    
         3      3173   F -0.300000       179.990       179.990    
         3      3177   F -0.300000       179.990       179.990    
         3      3181   F -0.300000       179.990       179.990    
         3      3185   F -0.300000       179.990       179.990    
         3      3189   F -0.300000       179.990       179.990    
         3      3193   F -0.300000       179.990       179.990    
         3      3197   F -0.300000       179.990       179.990    
         3      3201   F -0.300000       179.990       179.990    
         3      3205   F -0.300000       179.990       179.990    
         3      3209   F -0.300000       179.990       179.990    
         3      3213   F -0.300000       179.990       179.990    
         3      3217   F -0.300000       179.990       179.990    
         3      3221   F -0.300000       179.990       179.990    
         3      3225   F -0.300000       179.990       179.990    
         3      3229   F -0.300000       179.990       179.990    
         3      3233   F -0.300000       179.990       179.990    
         3      3237   F -0.300000       179.990       179.990    
         3      3241   F -0.300000       179.990       179.990    
         3      3245   F -0.300000       179.990       179.990    
         3      3249   F -0.300000       179.990       179.990    
         3      3253   F -0.300000       179.990       179.990    
         3      3257   F -0.300000       179.990       179.990    
         3      3261   F -0.300000       179.990       179.990    
         3      3265   F -0.300000       179.990       179.990    
         3      3269   F -0.300000       179.990       179.990    
         3      3273   F -0.300000       179.990       179.990    
         3      3277   F -0.300000       179.990       179.990    
         3      3281   F -0.300000       179.990       179.990    
         3      3285   F -0.300000       179.990       179.990    
         3      3289   F -0.300000       179.990       179.990    
         3      3293   F -0.300000       179.990       179.990    
         3      3297   F -0.300000       179.990       179.990    
         3      3301   F -0.300000       179.990       179.990    
         3      3305   F -0.300000       179.990       179.990    
         3      3309   F -0.300000       179.990       179.990    
         3      3313   F -0.300000       179.990       179.990    
         3      3317   F -0.300000       179.990       179.990    
         3      3321   F -0.300000       179.990       179.990    
         3      3325   F -0.300000       179.990       179.990    
         3      3329   F -0.300000       179.990       179.990    
         3      3333   F -0.300000       179.990       179.990    
         3      3337   F -0.300000       179.990       179.990    
         3      3341   F -0.300000       179.990       179.990    
         3      3345   F -0.300000       179.990       179.990    
         3      3349   F -0.300000       179.990       179.990    
         3      3353   F -0.300000       179.990       179.990    
         3      3357   F -0.300000       179.990       179.990    
         3      3361   F -0.300000       179.990       179.990    
         3      3365   F -0.300000       179.990       179.990    
         3      3369   F -0.300000       179.990       179.990    
         3      3373   F -0.300000       179.990       179.990    
         3      3377   F -0.300000       179.990       179.990    
         3      3381   F -0.300000       179.990       179.990    
         3      3385   F -0.300000       179.990       179.990    
         3      3389   F -0.300000       179.990       179.990    
         3      3393   F -0.300000       179.990       179.990    
         3      3397   F -0.300000       179.990       179.990    
         3      3401   F -0.300000       179.990       179.990    
         3      3405   F -0.300000       179.990       179.990    
         3      3409   F -0.300000       179.990       179.990    
         3      3413   F -0.300000       179.990       179.990    
         3      3417   F -0.300000       179.990       179.990    
         3      3421   F -0.300000       179.990       179.990    
         3      3425   F -0.300000       179.990       179.990    
         3      3429   F -0.300000       179.990       179.990    
         3      3433   F -0.300000       179.990       179.990    
         3      3437   F -0.300000       179.990       179.990    
         3      3441   F -0.300000       179.990       179.990    
         3      3445   F -0.300000       179.990       179.990    
         3      3449   F -0.300000       179.990       179.990    
         3      3453   F -0.300000       179.990       179.990    
         3      3457   F -0.300000       179.990       179.990    
         3      3461   F -0.300000       179.990       179.990    
         3      3465   F -0.300000       179.990       179.990    
         3      3469   F -0.300000       179.990       179.990    
         3      3473   F -0.300000       179.990       179.990    
         3      3477   F -0.300000       179.990       179.990    
         3      3481   F -0.300000       179.990       179.990    
         3      3485   F -0.300000       179.990       179.990    
         3      3489   F -0.300000       179.990       179.990    
         3      3493   F -0.300000       179.990       179.990    
         3      3497   F -0.300000       179.990       179.990    
         3      3501   F -0.300000       179.990       179.990    
         3      3505   F -0.300000       179.990       179.990    
         3      3509   F -0.300000       179.990       179.990    
         3      3513   F -0.300000       179.990       179.990    
         3      3517   F -0.300000       179.990       179.990    
         3      3521   F -0.300000       179.990       179.990    
         3      3525   F -0.300000       179.990       179.990    
         3      3529   F -0.300000       179.990       179.990    
         3      3533   F -0.300000       179.990       179.990    
         3      3537   F -0.300000       179.990       179.990    
         3      3541   F -0.300000       179.990       179.990    
         3      3545   F -0.300000       179.990       179.990    
         3      3549   F -0.300000       179.990       179.990    
         3      3553   F -0.300000       179.990       179.990    
         3      3557   F -0.300000       179.990       179.990    
         3      3561   F -0.300000       179.990       179.990    
         3      3565   F -0.300000       179.990       179.990    
         3      3569   F -0.300000       179.990       179.990    
         3      3573   F -0.300000       179.990       179.990    
         3      3577   F -0.300000       179.990       179.990    
         3      3581   F -0.300000       179.990       179.990    
         3      3585   F -0.300000       179.990       179.990    
         3      3589   F -0.300000       179.990       179.990    
         3      3593   F -0.300000       179.990       179.990    
         3      3597   F -0.300000       179.990       179.990    
         3      3601   F -0.300000       179.990       179.990    
         3      3605   F -0.300000       179.990       179.990    
         3      3609   F -0.300000       179.990       179.990    
         3      3613   F -0.300000       179.990       179.990    
         3      3617   F -0.300000       179.990       179.990    
         3      3621   F -0.300000       179.990       179.990    
         3      3625   F -0.300000       179.990       179.990    
         3      3629   F -0.300000       179.990       179.990    
         3      3633   F -0.300000       179.990       179.990    
         3      3637   F -0.300000       179.990       179.990    
         3      3641   F -0.300000       179.990       179.990    
         3      3645   F -0.300000       179.990       179.990    
         3      3649   F -0.300000       179.990       179.990    
         3      3653   F -0.300000       179.990       179.990    
         3      3657   F -0.300000       179.990       179.990    
         3      3661   F -0.300000       179.990       179.990    
         3      3665   F -0.300000       179.990       179.990    
         3      3669   F -0.300000       179.990       179.990    
         3      3673   F -0.300000       179.990       179.990    
         3      3677   F -0.300000       179.990       179.990    
         3      3681   F -0.300000       179.990       179.990    
         3      3685   F -0.300000       179.990       179.990    
         3      3689   F -0.300000       179.990       179.990    
         3      3693   F -0.300000       179.990       179.990    
         3      3697   F -0.300000       179.990       179.990    
         3      3701   F -0.300000       179.990       179.990    
         3      3705   F -0.300000       179.990       179.990    
         3      3709   F -0.300000       179.990       179.990    
         3      3713   F -0.300000       179.990       179.990    
         3      3717   F -0.300000       179.990       179.990    
         3      3721   F -0.300000       179.990       179.990    
         3      3725   F -0.300000       179.990       179.990    
         3      3729   F -0.300000       179.990       179.990    
         3      3733   F -0.300000       179.990       179.990    
         3      3737   F -0.300000       179.990       179.990    
         3      3741   F -0.300000       179.990       179.990    
         3      3745   F -0.300000       179.990       179.990    
         3      3749   F -0.300000       179.990       179.990    
         3      3753   F -0.300000       179.990       179.990    
         3      3757   F -0.300000       179.990       179.990    
         3      3761   F -0.300000       179.990       179.990    
         3      3765   F -0.300000       179.990       179.990    
         3      3769   F -0.300000       179.990       179.990    
         3      3773   F -0.300000       179.990       179.990    
         3      3777   F -0.300000       179.990       179.990    
         3      3781   F -0.300000       179.990       179.990    
         3      3785   F -0.300000       179.990       179.990    
         3      3789   F -0.300000       179.990       179.990    
         3      3793   F -0.300000       179.990       179.990    
         3      3797   F -0.300000       179.990       179.990    
         3      3801   F -0.300000       179.990       179.990    
         3      3805   F -0.300000       179.990       179.990    
         3      3809   F -0.300000       179.990       179.990    
         3      3813   F -0.300000       179.990       179.990    
         3      3817   F -0.300000       179.990       179.990    
         3      3821   F -0.300000       179.990       179.990    
         3      3825   F -0.300000       179.990       179.990    
         3      3829   F -0.300000       179.990       179.990    
         3      3833   F -0.300000       179.990       179.990    
         3      3837   F -0.300000       179.990       179.990    
         3      3841   F -0.300000       179.990       179.990    
         3      3845   F -0.300000       179.990       179.990    
         3      3849   F -0.300000       179.990       179.990    
         3      3853   F -0.300000       179.990       179.990    
         3      3857   F -0.300000       179.990       179.990    
         3      3861   F -0.300000       179.990       179.990    
         3      3865   F -0.300000       179.990       179.990    
         3      3869   F -0.300000       179.990       179.990    
         3      3873   F -0.300000       179.990       179.990    
         3      3877   F -0.300000       179.990       179.990    
         3      3881   F -0.300000       179.990       179.990    
         3      3885   F -0.300000       179.990       179.990    
         3      3889   F -0.300000       179.990       179.990    
         3      3893   F -0.300000       179.990       179.990    
         3      3897   F -0.300000       179.990       179.990    
         3      3901   F -0.300000       179.990       179.990    
         3      3905   F -0.300000       179.990       179.990    
         3      3909   F -0.300000       179.990       179.990    
         3      3913   F -0.300000       179.990       179.990    
         3      3917   F -0.300000       179.990       179.990    
         3      3921   F -0.300000       179.990       179.990    
         3      3925   F -0.300000       179.990       179.990    
         3      3929   F -0.300000       179.990       179.990    
         3      3933   F -0.300000       179.990       179.990    
         3      3937   F -0.300000       179.990       179.990    
         3      3941   F -0.300000       179.990       179.990    
         3      3945   F -0.300000       179.990       179.990    
         3      3949   F -0.300000       179.990       179.990    
         3      3953   F -0.300000       179.990       179.990    
         3      3957   F -0.300000       179.990       179.990    
         3      3961   F -0.300000       179.990       179.990    
         3      3965   F -0.300000       179.990       179.990    
         3      3969   F -0.300000       179.990       179.990    
         3      3973   F -0.300000       179.990       179.990    
         3      3977   F -0.300000       179.990       179.990    
         3      3981   F -0.300000       179.990       179.990    
         3      3985   F -0.300000       179.990       179.990    
         3      3989   F -0.300000       179.990       179.990    
         3      3993   F -0.300000       179.990       179.990    
         3      3997   F -0.300000       179.990       179.990    
         3      4001   F -0.300000       179.990       179.990    
         3      4005   F -0.300000       179.990       179.990    
         3      4009   F -0.300000       179.990       179.990    
         3      4013   F -0.300000       179.990       179.990    
         3      4017   F -0.300000       179.990       179.990    
         3      4021   F -0.300000       179.990       179.990    
         3      4025   F -0.300000       179.990       179.990    
         3      4029   F -0.300000       179.990       179.990    
         3      4033   F -0.300000       179.990       179.990    
         3      4037   F -0.300000       179.990       179.990    
         3      4041   F -0.300000       179.990       179.990    
         3      4045   F -0.300000       179.990       179.990    
         3      4049   F -0.300000       179.990       179.990    
         3      4053   F -0.300000       179.990       179.990    
         3      4057   F -0.300000       179.990       179.990    
         3      4061   F -0.300000       179.990       179.990    
         3      4065   F -0.300000       179.990       179.990    
         3      4069   F -0.300000       179.990       179.990    
         3      4073   F -0.300000       179.990       179.990    
         3      4077   F -0.300000       179.990       179.990    
         3      4081   F -0.300000       179.990       179.990    
         3      4085   F -0.300000       179.990       179.990    
         3      4089   F -0.300000       179.990       179.990    
         3      4093   F -0.300000       179.990       179.990    
         3      4097   F -0.300000       179.990       179.990    
         3      4101   F -0.300000       179.990       179.990    
         3      4105   F -0.300000       179.990       179.990    
         3      4109   F -0.300000       179.990       179.990    
         3      4113   F -0.300000       179.990       179.990    
         3      4117   F -0.300000       179.990       179.990    
         3      4121   F -0.300000       179.990       179.990    
         3      4125   F -0.300000       179.990       179.990    
         3      4129   F -0.300000       179.990       179.990    
         3      4133   F -0.300000       179.990       179.990    
         3      4137   F -0.300000       179.990       179.990    
         3      4141   F -0.300000       179.990       179.990    
         3      4145   F -0.300000       179.990       179.990    
         3      4149   F -0.300000       179.990       179.990    
         3      4153   F -0.300000       179.990       179.990    
         3      4157   F -0.300000       179.990       179.990    
         3      4161   F  0.350000       110.000       0.00000    
         3      4165   F  0.350000       110.000       180.000    
         3      4169   F -0.350000       110.000       90.0000    
         3      4173   F -0.350000       110.000       270.000    
         3      4177   F  0.350000       110.000       0.00000    
         3      4181   F  0.350000       110.000       180.000    
         3      4185   F -0.350000       110.000       90.0000    
         3      4189   F -0.350000       110.000       270.000    
         3      4193   F  0.350000       110.000       0.00000    
         3      4197   F  0.350000       110.000       180.000    
         3      4201   F -0.350000       110.000       90.0000    
         3      4205   F -0.350000       110.000       270.000    
         3      4209   F  0.350000       110.000       0.00000    
         3      4213   F  0.350000       110.000       180.000    
         3      4217   F -0.350000       110.000       90.0000    
         3      4221   F -0.350000       110.000       270.000    
         3      4225   F  0.350000       110.000       0.00000    
         3      4229   F  0.350000       110.000       180.000    
         3      4233   F -0.350000       110.000       90.0000    
         3      4237   F -0.350000       110.000       270.000    
         3      4241   F  0.350000       110.000       0.00000    
         3      4245   F  0.350000       110.000       180.000    
         3      4249   F -0.350000       110.000       90.0000    
         3      4253   F -0.350000       110.000       270.000    
         3      4257   F  0.350000       110.000       0.00000    
         3      4261   F  0.350000       110.000       180.000    
         3      4265   F -0.350000       110.000       90.0000    
         3      4269   F -0.350000       110.000       270.000    
         3      4273   F  0.350000       110.000       0.00000    
         3      4277   F  0.350000       110.000       180.000    
         3      4281   F -0.350000       110.000       90.0000    
         3      4285   F -0.350000       110.000       270.000    
         3      4289   F  0.350000       110.000       0.00000    
         3      4293   F  0.350000       110.000       180.000    
         3      4297   F -0.350000       110.000       90.0000    
         3      4301   F -0.350000       110.000       270.000    
         3      4305   F  0.350000       110.000       0.00000    
         3      4309   F  0.350000       110.000       180.000    
         3      4313   F -0.350000       110.000       90.0000    
         3      4317   F -0.350000       110.000       270.000    
         3      4321   F  0.350000       110.000       0.00000    
         3      4325   F  0.350000       110.000       180.000    
         3      4329   F -0.350000       110.000       90.0000    
         3      4333   F -0.350000       110.000       270.000    
         3      4337   F  0.350000       110.000       0.00000    
         3      4341   F  0.350000       110.000       180.000    
         3      4345   F -0.350000       110.000       90.0000    
         3      4349   F -0.350000       110.000       270.000    
         3      4353   F  0.350000       110.000       0.00000    
         3      4357   F  0.350000       110.000       180.000    
         3      4361   F -0.350000       110.000       90.0000    
         3      4365   F -0.350000       110.000       270.000    
         3      4369   F  0.350000       110.000       0.00000    
         3      4373   F  0.350000       110.000       180.000    
         3      4377   F -0.350000       110.000       90.0000    
         3      4381   F -0.350000       110.000       270.000    
         3      4385   F  0.350000       110.000       0.00000    
         3      4389   F  0.350000       110.000       180.000    
         3      4393   F -0.350000       110.000       90.0000    
         3      4397   F -0.350000       110.000       270.000    
         3      4401   F  0.350000       110.000       0.00000    
         3      4405   F  0.350000       110.000       180.000    
         3      4409   F -0.350000       110.000       90.0000    
         3      4413   F -0.350000       110.000       270.000    
         3      4417   F  0.350000       110.000       0.00000    
         3      4421   F  0.350000       110.000       180.000    
         3      4425   F -0.350000       110.000       90.0000    
         3      4429   F -0.350000       110.000       270.000    
         3      4433   F  0.350000       110.000       0.00000    
         3      4437   F  0.350000       110.000       180.000    
         3      4441   F -0.350000       110.000       90.0000    
         3      4445   F -0.350000       110.000       270.000    
         3      4449   F  0.350000       110.000       0.00000    
         3      4453   F  0.350000       110.000       180.000    
         3      4457   F -0.350000       110.000       90.0000    
         3      4461   F -0.350000       110.000       270.000    
         3      4465   F  0.350000       110.000       0.00000    
         3      4469   F  0.350000       110.000       180.000    
         3      4473   F -0.350000       110.000       90.0000    
         3      4477   F -0.350000       110.000       270.000    
         3      4481   F  0.350000       110.000       0.00000    
         3      4485   F  0.350000       110.000       180.000    
         3      4489   F -0.350000       110.000       90.0000    
         3      4493   F -0.350000       110.000       270.000    
         3      4497   F  0.350000       110.000       0.00000    
         3      4501   F  0.350000       110.000       180.000    
         3      4505   F -0.350000       110.000       90.0000    
         3      4509   F -0.350000       110.000       270.000    
         3      4513   F  0.350000       110.000       0.00000    
         3      4517   F  0.350000       110.000       180.000    
         3      4521   F -0.350000       110.000       90.0000    
         3      4525   F -0.350000       110.000       270.000    
         3      4529   F  0.350000       110.000       0.00000    
         3      4533   F  0.350000       110.000       180.000    
         3      4537   F -0.350000       110.000       90.0000    
         3      4541   F -0.350000       110.000       270.000    
         3      4545   F  0.350000       110.000       0.00000    
         3      4549   F  0.350000       110.000       180.000    
         3      4553   F -0.350000       110.000       90.0000    
         3      4557   F -0.350000       110.000       270.000    
         3      4561   F  0.350000       110.000       0.00000    
         3      4565   F  0.350000       110.000       180.000    
         3      4569   F -0.350000       110.000       90.0000    
         3      4573   F -0.350000       110.000       270.000    
         3      4577   F  0.350000       110.000       0.00000    
         3      4581   F  0.350000       110.000       180.000    
         3      4585   F -0.350000       110.000       90.0000    
         3      4589   F -0.350000       110.000       270.000    
         3      4593   F  0.350000       110.000       0.00000    
         3      4597   F  0.350000       110.000       180.000    
         3      4601   F -0.350000       110.000       90.0000    
         3      4605   F -0.350000       110.000       270.000    
         3      4609   F  0.350000       110.000       0.00000    
         3      4613   F  0.350000       110.000       180.000    
         3      4617   F -0.350000       110.000       90.0000    
         3      4621   F -0.350000       110.000       270.000    
         3      4625   F  0.350000       110.000       0.00000    
         3      4629   F  0.350000       110.000       180.000    
         3      4633   F -0.350000       110.000       90.0000    
         3      4637   F -0.350000       110.000       270.000    
         3      4641   F  0.350000       110.000       0.00000    
         3      4645   F  0.350000       110.000       180.000    
         3      4649   F -0.350000       110.000       90.0000    
         3      4653   F -0.350000       110.000       270.000    
         3      4657   F  0.350000       110.000       0.00000    
         3      4661   F  0.350000       110.000       180.000    
         3      4665   F -0.350000       110.000       90.0000    
         3      4669   F -0.350000       110.000       270.000    
         3      4673   F  0.350000       110.000       0.00000    
         3      4677   F  0.350000       110.000       180.000    
         3      4681   F -0.350000       110.000       90.0000    
         3      4685   F -0.350000       110.000       270.000    
         3      4689   F  0.350000       110.000       0.00000    
         3      4693   F  0.350000       110.000       180.000    
         3      4697   F -0.350000       110.000       90.0000    
         3      4701   F -0.350000       110.000       270.000    
         3      4705   F  0.350000       110.000       0.00000    
         3      4709   F  0.350000       110.000       180.000    
         3      4713   F -0.350000       110.000       90.0000    
         3      4717   F -0.350000       110.000       270.000    
         3      4721   F  0.350000       110.000       0.00000    
         3      4725   F  0.350000       110.000       180.000    
         3      4729   F -0.350000       110.000       90.0000    
         3      4733   F -0.350000       110.000       270.000    
         3      4737   F  0.350000       110.000       0.00000    
         3      4741   F  0.350000       110.000       180.000    
         3      4745   F -0.350000       110.000       90.0000    
         3      4749   F -0.350000       110.000       270.000    
         3      4753   F  0.350000       110.000       0.00000    
         3      4757   F  0.350000       110.000       180.000    
         3      4761   F -0.350000       110.000       90.0000    
         3      4765   F -0.350000       110.000       270.000    
         3      4769   F  0.350000       110.000       0.00000    
         3      4773   F  0.350000       110.000       180.000    
         3      4777   F -0.350000       110.000       90.0000    
         3      4781   F -0.350000       110.000       270.000    
         3      4785   F  0.350000       110.000       0.00000    
         3      4789   F  0.350000       110.000       180.000    
         3      4793   F -0.350000       110.000       90.0000    
         3      4797   F -0.350000       110.000       270.000    
         3      4801   F  0.350000       110.000       0.00000    
         3      4805   F  0.350000       110.000       180.000    
         3      4809   F -0.350000       110.000       90.0000    
         3      4813   F -0.350000       110.000       270.000    
         3      4817   F  0.350000       110.000       0.00000    
         3      4821   F  0.350000       110.000       180.000    
         3      4825   F -0.350000       110.000       90.0000    
         3      4829   F -0.350000       110.000       270.000    
         3      4833   F  0.350000       110.000       0.00000    
         3      4837   F  0.350000       110.000       180.000    
         3      4841   F -0.350000       110.000       90.0000    
         3      4845   F -0.350000       110.000       270.000    
         3      4849   F  0.350000       110.000       0.00000    
         3      4853   F  0.350000       110.000       180.000    
         3      4857   F -0.350000       110.000       90.0000    
         3      4861   F -0.350000       110.000       270.000    
         3      4865   F  0.350000       110.000       0.00000    
         3      4869   F  0.350000       110.000       180.000    
         3      4873   F -0.350000       110.000       90.0000    
         3      4877   F -0.350000       110.000       270.000    
         3      4881   F  0.350000       110.000       0.00000    
         3      4885   F  0.350000       110.000       180.000    
         3      4889   F -0.350000       110.000       90.0000    
         3      4893   F -0.350000       110.000       270.000    
         3      4897   F  0.350000       110.000       0.00000    
         3      4901   F  0.350000       110.000       180.000    
         3      4905   F -0.350000       110.000       90.0000    
         3      4909   F -0.350000       110.000       270.000    
         3      4913   F  0.350000       110.000       0.00000    
         3      4917   F  0.350000       110.000       180.000    
         3      4921   F -0.350000       110.000       90.0000    
         3      4925   F -0.350000       110.000       270.000    
         3      4929   F  0.350000       110.000       0.00000    
         3      4933   F  0.350000       110.000       180.000    
         3      4937   F -0.350000       110.000       90.0000    
         3      4941   F -0.350000       110.000       270.000    
         3      4945   F  0.350000       110.000       0.00000    
         3      4949   F  0.350000       110.000       180.000    
         3      4953   F -0.350000       110.000       90.0000    
         3      4957   F -0.350000       110.000       270.000    
         3      4961   F  0.350000       110.000       0.00000    
         3      4965   F  0.350000       110.000       180.000    
         3      4969   F -0.350000       110.000       90.0000    
         3      4973   F -0.350000       110.000       270.000    
         3      4977   F  0.350000       110.000       0.00000    
         3      4981   F  0.350000       110.000       180.000    
         3      4985   F -0.350000       110.000       90.0000    
         3      4989   F -0.350000       110.000       270.000    
         3      4993   F  0.350000       110.000       0.00000    
         3      4997   F  0.350000       110.000       180.000    
         3      5001   F -0.350000       110.000       90.0000    
         3      5005   F -0.350000       110.000       270.000    
         3      5009   F  0.350000       110.000       0.00000    
         3      5013   F  0.350000       110.000       180.000    
         3      5017   F -0.350000       110.000       90.0000    
         3      5021   F -0.350000       110.000       270.000    
         3      5025   F  0.350000       110.000       0.00000    
         3      5029   F  0.350000       110.000       180.000    
         3      5033   F -0.350000       110.000       90.0000    
         3      5037   F -0.350000       110.000       270.000    
         3      5041   F  0.350000       110.000       0.00000    
         3      5045   F  0.350000       110.000       180.000    
         3      5049   F -0.350000       110.000       90.0000    
         3      5053   F -0.350000       110.000       270.000    
         3      5057   F  0.350000       110.000       0.00000    
         3      5061   F  0.350000       110.000       180.000    
         3      5065   F -0.350000       110.000       90.0000    
         3      5069   F -0.350000       110.000       270.000    
         3      5073   F  0.350000       110.000       0.00000    
         3      5077   F  0.350000       110.000       180.000    
         3      5081   F -0.350000       110.000       90.0000    
         3      5085   F -0.350000       110.000       270.000    
         3      5089   F  0.350000       110.000       0.00000    
         3      5093   F  0.350000       110.000       180.000    
         3      5097   F -0.350000       110.000       90.0000    
         3      5101   F -0.350000       110.000       270.000    
         3      5105   F  0.350000       110.000       0.00000    
         3      5109   F  0.350000       110.000       180.000    
         3      5113   F -0.350000       110.000       90.0000    
         3      5117   F -0.350000       110.000       270.000    
         3      5121   F  0.350000       110.000       0.00000    
         3      5125   F  0.350000       110.000       180.000    
         3      5129   F -0.350000       110.000       90.0000    
         3      5133   F -0.350000       110.000       270.000    
         3      5137   F  0.350000       110.000       0.00000    
         3      5141   F  0.350000       110.000       180.000    
         3      5145   F -0.350000       110.000       90.0000    
         3      5149   F -0.350000       110.000       270.000    
         3      5153   F  0.350000       110.000       0.00000    
         3      5157   F  0.350000       110.000       180.000    
         3      5161   F -0.350000       110.000       90.0000    
         3      5165   F -0.350000       110.000       270.000    
         3      5169   F  0.350000       110.000       0.00000    
         3      5173   F  0.350000       110.000       180.000    
         3      5177   F -0.350000       110.000       90.0000    
         3      5181   F -0.350000       110.000       270.000    
         3      5185   F  0.350000       110.000       0.00000    
         3      5189   F  0.350000       110.000       180.000    
         3      5193   F -0.350000       110.000       90.0000    
         3      5197   F -0.350000       110.000       270.000    
         3      5201   F  0.350000       110.000       0.00000    
         3      5205   F  0.350000       110.000       180.000    
         3      5209   F -0.350000       110.000       90.0000    
         3      5213   F -0.350000       110.000       270.000    
         3      5217   F  0.350000       110.000       0.00000    
         3      5221   F  0.350000       110.000       180.000    
         3      5225   F -0.350000       110.000       90.0000    
         3      5229   F -0.350000       110.000       270.000    
         3      5233   F  0.350000       110.000       0.00000    
         3      5237   F  0.350000       110.000       180.000    
         3      5241   F -0.350000       110.000       90.0000    
         3      5245   F -0.350000       110.000       270.000    
         3      5249   F  0.350000       110.000       0.00000    
         3      5253   F  0.350000       110.000       180.000    
         3      5257   F -0.350000       110.000       90.0000    
         3      5261   F -0.350000       110.000       270.000    
         3      5265   F  0.350000       110.000       0.00000    
         3      5269   F  0.350000       110.000       180.000    
         3      5273   F -0.350000       110.000       90.0000    
         3      5277   F -0.350000       110.000       270.000    
         3      5281   F  0.350000       110.000       0.00000    
         3      5285   F  0.350000       110.000       180.000    
         3      5289   F -0.350000       110.000       90.0000    
         3      5293   F -0.350000       110.000       270.000    
         3      5297   F  0.350000       110.000       0.00000    
         3      5301   F  0.350000       110.000       180.000    
         3      5305   F -0.350000       110.000       90.0000    
         3      5309   F -0.350000       110.000       270.000    
         3      5313   F  0.350000       110.000       0.00000    
         3      5317   F  0.350000       110.000       180.000    
         3      5321   F -0.350000       110.000       90.0000    
         3      5325   F -0.350000       110.000       270.000    
         3      5329   F  0.350000       110.000       0.00000    
         3      5333   F  0.350000       110.000       180.000    
         3      5337   F -0.350000       110.000       90.0000    
         3      5341   F -0.350000       110.000       270.000    
         3      5345   F  0.350000       110.000       0.00000    
         3      5349   F  0.350000       110.000       180.000    
         3      5353   F -0.350000       110.000       90.0000    
         3      5357   F -0.350000       110.000       270.000    
         3      5361   F  0.350000       110.000       0.00000    
         3      5365   F  0.350000       110.000       180.000    
         3      5369   F -0.350000       110.000       90.0000    
         3      5373   F -0.350000       110.000       270.000    
         3      5377   F  0.350000       110.000       0.00000    
         3      5381   F  0.350000       110.000       180.000    
         3      5385   F -0.350000       110.000       90.0000    
         3      5389   F -0.350000       110.000       270.000    
         3      5393   F  0.350000       110.000       0.00000    
         3      5397   F  0.350000       110.000       180.000    
         3      5401   F -0.350000       110.000       90.0000    
         3      5405   F -0.350000       110.000       270.000    
         3      5409   F  0.350000       110.000       0.00000    
         3      5413   F  0.350000       110.000       180.000    
         3      5417   F -0.350000       110.000       90.0000    
         3      5421   F -0.350000       110.000       270.000    
         3      5425   F  0.350000       110.000       0.00000    
         3      5429   F  0.350000       110.000       180.000    
         3      5433   F -0.350000       110.000       90.0000    
         3      5437   F -0.350000       110.000       270.000    
         3      5441   F  0.350000       110.000       0.00000    
         3      5445   F  0.350000       110.000       180.000    
         3      5449   F -0.350000       110.000       90.0000    
         3      5453   F -0.350000       110.000       270.000    
         3      5457   F  0.350000       110.000       0.00000    
         3      5461   F  0.350000       110.000       180.000    
         3      5465   F -0.350000       110.000       90.0000    
         3      5469   F -0.350000       110.000       270.000    
         3      5473   F  0.350000       110.000       0.00000    
         3      5477   F  0.350000       110.000       180.000    
         3      5481   F -0.350000       110.000       90.0000    
         3      5485   F -0.350000       110.000       270.000    
         3      5489   F  0.350000       110.000       0.00000    
         3      5493   F  0.350000       110.000       180.000    
         3      5497   F -0.350000       110.000       90.0000    
         3      5501   F -0.350000       110.000       270.000    
         3      5505   F  0.350000       110.000       0.00000    
         3      5509   F  0.350000       110.000       180.000    
         3      5513   F -0.350000       110.000       90.0000    
         3      5517   F -0.350000       110.000       270.000    
         3      5521   F  0.350000       110.000       0.00000    
         3      5525   F  0.350000       110.000       180.000    
         3      5529   F -0.350000       110.000       90.0000    
         3      5533   F -0.350000       110.000       270.000    
         3      5537   F  0.350000       110.000       0.00000    
         3      5541   F  0.350000       110.000       180.000    
         3      5545   F -0.350000       110.000       90.0000    
         3      5549   F -0.350000       110.000       270.000    
         3      5553   F  0.350000       110.000       0.00000    
         3      5557   F  0.350000       110.000       180.000    
         3      5561   F -0.350000       110.000       90.0000    
         3      5565   F -0.350000       110.000       270.000    
         3      5569   F  0.350000       110.000       0.00000    
         3      5573   F  0.350000       110.000       180.000    
         3      5577   F -0.350000       110.000       90.0000    
         3      5581   F -0.350000       110.000       270.000    
         3      5585   F  0.350000       110.000       0.00000    
         3      5589   F  0.350000       110.000       180.000    
         3      5593   F -0.350000       110.000       90.0000    
         3      5597   F -0.350000       110.000       270.000    
         3      5601   F  0.350000       110.000       0.00000    
         3      5605   F  0.350000       110.000       180.000    
         3      5609   F -0.350000       110.000       90.0000    
         3      5613   F -0.350000       110.000       270.000    
         3      5617   F  0.350000       110.000       0.00000    
         3      5621   F  0.350000       110.000       180.000    
         3      5625   F -0.350000       110.000       90.0000    
         3      5629   F -0.350000       110.000       270.000    
         3      5633   F  0.350000       110.000       0.00000    
         3      5637   F  0.350000       110.000       180.000    
         3      5641   F -0.350000       110.000       90.0000    
         3      5645   F -0.350000       110.000       270.000    
         3      5649   F  0.350000       110.000       0.00000    
         3      5653   F  0.350000       110.000       180.000    
         3      5657   F -0.350000       110.000       90.0000    
         3      5661   F -0.350000       110.000       270.000    
         3      5665   F  0.350000       110.000       0.00000    
         3      5669   F  0.350000       110.000       180.000    
         3      5673   F -0.350000       110.000       90.0000    
         3      5677   F -0.350000       110.000       270.000    
         3      5681   F  0.350000       110.000       0.00000    
         3      5685   F  0.350000       110.000       180.000    
         3      5689   F -0.350000       110.000       90.0000    
         3      5693   F -0.350000       110.000       270.000    
         3      5697   F  0.350000       110.000       0.00000    
         3      5701   F  0.350000       110.000       180.000    
         3      5705   F -0.350000       110.000       90.0000    
         3      5709   F -0.350000       110.000       270.000    
         3      5713   F  0.350000       110.000       0.00000    
         3      5717   F  0.350000       110.000       180.000    
         3      5721   F -0.350000       110.000       90.0000    
         3      5725   F -0.350000       110.000       270.000    
         3      5729   F  0.350000       110.000       0.00000    
         3      5733   F  0.350000       110.000       180.000    
         3      5737   F -0.350000       110.000       90.0000    
         3      5741   F -0.350000       110.000       270.000    
         3      5745   F  0.350000       110.000       0.00000    
         3      5749   F  0.350000       110.000       180.000    
         3      5753   F -0.350000       110.000       90.0000    
         3      5757   F -0.350000       110.000       270.000    
         3      5761   F  0.350000       110.000       0.00000    
         3      5765   F  0.350000       110.000       180.000    
         3      5769   F -0.350000       110.000       90.0000    
         3      5773   F -0.350000       110.000       270.000    
         3      5777   F  0.350000       110.000       0.00000    
         3      5781   F  0.350000       110.000       180.000    
         3      5785   F -0.350000       110.000       90.0000    
         3      5789   F -0.350000       110.000       270.000    
         3      5793   F  0.350000       110.000       0.00000    
         3      5797   F  0.350000       110.000       180.000    
         3      5801   F -0.350000       110.000       90.0000    
         3      5805   F -0.350000       110.000       270.000    
         3      5809   F  0.350000       110.000       0.00000    
         3      5813   F  0.350000       110.000       180.000    
         3      5817   F -0.350000       110.000       90.0000    
         3      5821   F -0.350000       110.000       270.000    
         3      5825   F  0.350000       110.000       0.00000    
         3      5829   F  0.350000       110.000       180.000    
         3      5833   F -0.350000       110.000       90.0000    
         3      5837   F -0.350000       110.000       270.000    
         3      5841   F  0.350000       110.000       0.00000    
         3      5845   F  0.350000       110.000       180.000    
         3      5849   F -0.350000       110.000       90.0000    
         3      5853   F -0.350000       110.000       270.000    
         3      5857   F  0.350000       110.000       0.00000    
         3      5861   F  0.350000       110.000       180.000    
         3      5865   F -0.350000       110.000       90.0000    
         3      5869   F -0.350000       110.000       270.000    
         3      5873   F  0.350000       110.000       0.00000    
         3      5877   F  0.350000       110.000       180.000    
         3      5881   F -0.350000       110.000       90.0000    
         3      5885   F -0.350000       110.000       270.000    
         3      5889   F  0.350000       110.000       0.00000    
         3      5893   F  0.350000       110.000       180.000    
         3      5897   F -0.350000       110.000       90.0000    
         3      5901   F -0.350000       110.000       270.000    
         3      5905   F  0.350000       110.000       0.00000    
         3      5909   F  0.350000       110.000       180.000    
         3      5913   F -0.350000       110.000       90.0000    
         3      5917   F -0.350000       110.000       270.000    
         3      5921   F  0.350000       110.000       0.00000    
         3      5925   F  0.350000       110.000       180.000    
         3      5929   F -0.350000       110.000       90.0000    
         3      5933   F -0.350000       110.000       270.000    
         3      5937   F  0.350000       110.000       0.00000    
         3      5941   F  0.350000       110.000       180.000    
         3      5945   F -0.350000       110.000       90.0000    
         3      5949   F -0.350000       110.000       270.000    
         3      5953   F  0.350000       110.000       0.00000    
         3      5957   F  0.350000       110.000       180.000    
         3      5961   F -0.350000       110.000       90.0000    
         3      5965   F -0.350000       110.000       270.000    
         3      5969   F  0.350000       110.000       0.00000    
         3      5973   F  0.350000       110.000       180.000    
         3      5977   F -0.350000       110.000       90.0000    
         3      5981   F -0.350000       110.000       270.000    
         3      5985   F  0.350000       110.000       0.00000    
         3      5989   F  0.350000       110.000       180.000    
         3      5993   F -0.350000       110.000       90.0000    
         3      5997   F -0.350000       110.000       270.000    
         3      6001   F  0.350000       110.000       0.00000    
         3      6005   F  0.350000       110.000       180.000    
         3      6009   F -0.350000       110.000       90.0000    
         3      6013   F -0.350000       110.000       270.000    
         3      6017   F  0.350000       110.000       0.00000    
         3      6021   F  0.350000       110.000       180.000    
         3      6025   F -0.350000       110.000       90.0000    
         3      6029   F -0.350000       110.000       270.000    
         3      6033   F  0.350000       110.000       0.00000    
         3      6037   F  0.350000       110.000       180.000    
         3      6041   F -0.350000       110.000       90.0000    
         3      6045   F -0.350000       110.000       270.000    
         3      6049   F  0.350000       110.000       0.00000    
         3      6053   F  0.350000       110.000       180.000    
         3      6057   F -0.350000       110.000       90.0000    
         3      6061   F -0.350000       110.000       270.000    
         3      6065   F  0.350000       110.000       0.00000    
         3      6069   F  0.350000       110.000       180.000    
         3      6073   F -0.350000       110.000       90.0000    
         3      6077   F -0.350000       110.000       270.000    
         3      6081   F  0.350000       110.000       0.00000    
         3      6085   F  0.350000       110.000       180.000    
         3      6089   F -0.350000       110.000       90.0000    
         3      6093   F -0.350000       110.000       270.000    
         3      6097   F  0.350000       110.000       0.00000    
         3      6101   F  0.350000       110.000       180.000    
         3      6105   F -0.350000       110.000       90.0000    
         3      6109   F -0.350000       110.000       270.000    
         3      6113   F  0.350000       110.000       0.00000    
         3      6117   F  0.350000       110.000       180.000    
         3      6121   F -0.350000       110.000       90.0000    
         3      6125   F -0.350000       110.000       270.000    
         3      6129   F  0.350000       110.000       0.00000    
         3      6133   F  0.350000       110.000       180.000    
         3      6137   F -0.350000       110.000       90.0000    
         3      6141   F -0.350000       110.000       270.000    
         3      6145   F  0.350000       110.000       0.00000    
         3      6149   F  0.350000       110.000       180.000    
         3      6153   F -0.350000       110.000       90.0000    
         3      6157   F -0.350000       110.000       270.000    
         3      6161   F  0.350000       110.000       0.00000    
         3      6165   F  0.350000       110.000       180.000    
         3      6169   F -0.350000       110.000       90.0000    
         3      6173   F -0.350000       110.000       270.000    
         3      6177   F  0.350000       110.000       0.00000    
         3      6181   F  0.350000       110.000       180.000    
         3      6185   F -0.350000       110.000       90.0000    
         3      6189   F -0.350000       110.000       270.000    
         3      6193   F  0.350000       110.000       0.00000    
         3      6197   F  0.350000       110.000       180.000    
         3      6201   F -0.350000       110.000       90.0000    
         3      6205   F -0.350000       110.000       270.000    
         3      6209   F  0.350000       110.000       0.00000    
         3      6213   F  0.350000       110.000       180.000    
         3      6217   F -0.350000       110.000       90.0000    
         3      6221   F -0.350000       110.000       270.000    
         3      6225   F  0.350000       110.000       0.00000    
         3      6229   F  0.350000       110.000       180.000    
         3      6233   F -0.350000       110.000       90.0000    
         3      6237   F -0.350000       110.000       270.000    
         3      6241   F  0.350000       110.000       0.00000    
         3      6245   F  0.350000       110.000       180.000    
         3      6249   F -0.350000       110.000       90.0000    
         3      6253   F -0.350000       110.000       270.000    
         3      6257   F  0.350000       110.000       0.00000    
         3      6261   F  0.350000       110.000       180.000    
         3      6265   F -0.350000       110.000       90.0000    
         3      6269   F -0.350000       110.000       270.000    
         3      6273   F  0.350000       110.000       0.00000    
         3      6277   F  0.350000       110.000       180.000    
         3      6281   F -0.350000       110.000       90.0000    
         3      6285   F -0.350000       110.000       270.000    
         3      6289   F  0.350000       110.000       0.00000    
         3      6293   F  0.350000       110.000       180.000    
         3      6297   F -0.350000       110.000       90.0000    
         3      6301   F -0.350000       110.000       270.000    
         3      6305   F  0.350000       110.000       0.00000    
         3      6309   F  0.350000       110.000       180.000    
         3      6313   F -0.350000       110.000       90.0000    
         3      6317   F -0.350000       110.000       270.000    
         3      6321   F  0.350000       110.000       0.00000    
         3      6325   F  0.350000       110.000       180.000    
         3      6329   F -0.350000       110.000       90.0000    
         3      6333   F -0.350000       110.000       270.000    
         3      6337   F  0.350000       110.000       0.00000    
         3      6341   F  0.350000       110.000       180.000    
         3      6345   F -0.350000       110.000       90.0000    
         3      6349   F -0.350000       110.000       270.000    
         3      6353   F  0.350000       110.000       0.00000    
         3      6357   F  0.350000       110.000       180.000    
         3      6361   F -0.350000       110.000       90.0000    
         3      6365   F -0.350000       110.000       270.000    
         3      6369   F  0.350000       110.000       0.00000    
         3      6373   F  0.350000       110.000       180.000    
         3      6377   F -0.350000       110.000       90.0000    
         3      6381   F -0.350000       110.000       270.000    
         3      6385   F  0.350000       110.000       0.00000    
         3      6389   F  0.350000       110.000       180.000    
         3      6393   F -0.350000       110.000       90.0000    
         3      6397   F -0.350000       110.000       270.000    
         3      6401   F  0.350000       110.000       0.00000    
         3      6405   F  0.350000       110.000       180.000    
         3      6409   F -0.350000       110.000       90.0000    
         3      6413   F -0.350000       110.000       270.000    
         3      6417   F  0.350000       110.000       0.00000    
         3      6421   F  0.350000       110.000       180.000    
         3      6425   F -0.350000       110.000       90.0000    
         3      6429   F -0.350000       110.000       270.000    
         3      6433   F  0.350000       110.000       0.00000    
         3      6437   F  0.350000       110.000       180.000    
         3      6441   F -0.350000       110.000       90.0000    
         3      6445   F -0.350000       110.000       270.000    
         3      6449   F  0.350000       110.000       0.00000    
         3      6453   F  0.350000       110.000       180.000    
         3      6457   F -0.350000       110.000       90.0000    
         3      6461   F -0.350000       110.000       270.000    
         3      6465   F  0.350000       110.000       0.00000    
         3      6469   F  0.350000       110.000       180.000    
         3      6473   F -0.350000       110.000       90.0000    
         3      6477   F -0.350000       110.000       270.000    
         3      6481   F  0.350000       110.000       0.00000    
         3      6485   F  0.350000       110.000       180.000    
         3      6489   F -0.350000       110.000       90.0000    
         3      6493   F -0.350000       110.000       270.000    
         3      6497   F  0.350000       110.000       0.00000    
         3      6501   F  0.350000       110.000       180.000    
         3      6505   F -0.350000       110.000       90.0000    
         3      6509   F -0.350000       110.000       270.000    
         3      6513   F  0.350000       110.000       0.00000    
         3      6517   F  0.350000       110.000       180.000    
         3      6521   F -0.350000       110.000       90.0000    
         3      6525   F -0.350000       110.000       270.000    
         3      6529   F  0.350000       110.000       0.00000    
         3      6533   F  0.350000       110.000       180.000    
         3      6537   F -0.350000       110.000       90.0000    
         3      6541   F -0.350000       110.000       270.000    
         3      6545   F  0.350000       110.000       0.00000    
         3      6549   F  0.350000       110.000       180.000    
         3      6553   F -0.350000       110.000       90.0000    
         3      6557   F -0.350000       110.000       270.000    
         3      6561   F  0.350000       110.000       0.00000    
         3      6565   F  0.350000       110.000       180.000    
         3      6569   F -0.350000       110.000       90.0000    
         3      6573   F -0.350000       110.000       270.000    
         3      6577   F  0.350000       110.000       0.00000    
         3      6581   F  0.350000       110.000       180.000    
         3      6585   F -0.350000       110.000       90.0000    
         3      6589   F -0.350000       110.000       270.000    
         3      6593   F  0.350000       110.000       0.00000    
         3      6597   F  0.350000       110.000       180.000    
         3      6601   F -0.350000       110.000       90.0000    
         3      6605   F -0.350000       110.000       270.000    
         3      6609   F  0.350000       110.000       0.00000    
         3      6613   F  0.350000       110.000       180.000    
         3      6617   F -0.350000       110.000       90.0000    
         3      6621   F -0.350000       110.000       270.000    
         3      6625   F  0.350000       110.000       0.00000    
         3      6629   F  0.350000       110.000       180.000    
         3      6633   F -0.350000       110.000       90.0000    
         3      6637   F -0.350000       110.000       270.000    
         3      6641   F  0.350000       110.000       0.00000    
         3      6645   F  0.350000       110.000       180.000    
         3      6649   F -0.350000       110.000       90.0000    
         3      6653   F -0.350000       110.000       270.000    
         3      6657   F  0.350000       110.000       0.00000    
         3      6661   F  0.350000       110.000       180.000    
         3      6665   F -0.350000       110.000       90.0000    
         3      6669   F -0.350000       110.000       270.000    
         3      6673   F  0.350000       110.000       0.00000    
         3      6677   F  0.350000       110.000       180.000    
         3      6681   F -0.350000       110.000       90.0000    
         3      6685   F -0.350000       110.000       270.000    
         3      6689   F  0.350000       110.000       0.00000    
         3      6693   F  0.350000       110.000       180.000    
         3      6697   F -0.350000       110.000       90.0000    
         3      6701   F -0.350000       110.000       270.000    
         3      6705   F  0.350000       110.000       0.00000    
         3      6709   F  0.350000       110.000       180.000    
         3      6713   F -0.350000       110.000       90.0000    
         3      6717   F -0.350000       110.000       270.000    
         3      6721   F  0.350000       110.000       0.00000    
         3      6725   F  0.350000       110.000       180.000    
         3      6729   F -0.350000       110.000       90.0000    
         3      6733   F -0.350000       110.000       270.000    
         3      6737   F  0.350000       110.000       0.00000    
         3      6741   F  0.350000       110.000       180.000    
         3      6745   F -0.350000       110.000       90.0000    
         3      6749   F -0.350000       110.000       270.000    
         3      6753   F  0.350000       110.000       0.00000    
         3      6757   F  0.350000       110.000       180.000    
         3      6761   F -0.350000       110.000       90.0000    
         3      6765   F -0.350000       110.000       270.000    
         3      6769   F  0.350000       110.000       0.00000    
         3      6773   F  0.350000       110.000       180.000    
         3      6777   F -0.350000       110.000       90.0000    
         3      6781   F -0.350000       110.000       270.000    
         3      6785   F  0.350000       110.000       0.00000    
         3      6789   F  0.350000       110.000       180.000    
         3      6793   F -0.350000       110.000       90.0000    
         3      6797   F -0.350000       110.000       270.000    
         3      6801   F  0.350000       110.000       0.00000    
         3      6805   F  0.350000       110.000       180.000    
         3      6809   F -0.350000       110.000       90.0000    
         3      6813   F -0.350000       110.000       270.000    
         3      6817   F  0.350000       110.000       0.00000    
         3      6821   F  0.350000       110.000       180.000    
         3      6825   F -0.350000       110.000       90.0000    
         3      6829   F -0.350000       110.000       270.000    
         3      6833   F  0.350000       110.000       0.00000    
         3      6837   F  0.350000       110.000       180.000    
         3      6841   F -0.350000       110.000       90.0000    
         3      6845   F -0.350000       110.000       270.000    
         3      6849   F  0.350000       110.000       0.00000    
         3      6853   F  0.350000       110.000       180.000    
         3      6857   F -0.350000       110.000       90.0000    
         3      6861   F -0.350000       110.000       270.000    
         3      6865   F  0.350000       110.000       0.00000    
         3      6869   F  0.350000       110.000       180.000    
         3      6873   F -0.350000       110.000       90.0000    
         3      6877   F -0.350000       110.000       270.000    
         3      6881   F  0.350000       110.000       0.00000    
         3      6885   F  0.350000       110.000       180.000    
         3      6889   F -0.350000       110.000       90.0000    
         3      6893   F -0.350000       110.000       270.000    
         3      6897   F  0.350000       110.000       0.00000    
         3      6901   F  0.350000       110.000       180.000    
         3      6905   F -0.350000       110.000       90.0000    
         3      6909   F -0.350000       110.000       270.000    
         3      6913   F  0.350000       110.000       0.00000    
         3      6917   F  0.350000       110.000       180.000    
         3      6921   F -0.350000       110.000       90.0000    
         3      6925   F -0.350000       110.000       270.000    
         3      6929   F  0.350000       110.000       0.00000    
         3      6933   F  0.350000       110.000       180.000    
         3      6937   F -0.350000       110.000       90.0000    
         3      6941   F -0.350000       110.000       270.000    
         3      6945   F  0.350000       110.000       0.00000    
         3      6949   F  0.350000       110.000       180.000    
         3      6953   F -0.350000       110.000       90.0000    
         3      6957   F -0.350000       110.000       270.000    
         3      6961   F  0.350000       110.000       0.00000    
         3      6965   F  0.350000       110.000       180.000    
         3      6969   F -0.350000       110.000       90.0000    
         3      6973   F -0.350000       110.000       270.000    
         3      6977   F  0.350000       110.000       0.00000    
         3      6981   F  0.350000       110.000       180.000    
         3      6985   F -0.350000       110.000       90.0000    
         3      6989   F -0.350000       110.000       270.000    
         3      6993   F  0.350000       110.000       0.00000    
         3      6997   F  0.350000       110.000       180.000    
         3      7001   F -0.350000       110.000       90.0000    
         3      7005   F -0.350000       110.000       270.000    
         3      7009   F  0.350000       110.000       0.00000    
         3      7013   F  0.350000       110.000       180.000    
         3      7017   F -0.350000       110.000       90.0000    
         3      7021   F -0.350000       110.000       270.000    
         3      7025   F  0.350000       110.000       0.00000    
         3      7029   F  0.350000       110.000       180.000    
         3      7033   F -0.350000       110.000       90.0000    
         3      7037   F -0.350000       110.000       270.000    
         3      7041   F  0.350000       110.000       0.00000    
         3      7045   F  0.350000       110.000       180.000    
         3      7049   F -0.350000       110.000       90.0000    
         3      7053   F -0.350000       110.000       270.000    
         3      7057   F  0.350000       110.000       0.00000    
         3      7061   F  0.350000       110.000       180.000    
         3      7065   F -0.350000       110.000       90.0000    
         3      7069   F -0.350000       110.000       270.000    
         3      7073   F  0.350000       110.000       0.00000    
         3      7077   F  0.350000       110.000       180.000    
         3      7081   F -0.350000       110.000       90.0000    
         3      7085   F -0.350000       110.000       270.000    
         3      7089   F  0.350000       110.000       0.00000    
         3      7093   F  0.350000       110.000       180.000    
         3      7097   F -0.350000       110.000       90.0000    
         3      7101   F -0.350000       110.000       270.000    
         3      7105   F  0.350000       110.000       0.00000    
         3      7109   F  0.350000       110.000       180.000    
         3      7113   F -0.350000       110.000       90.0000    
         3      7117   F -0.350000       110.000       270.000    
         3      7121   F  0.350000       110.000       0.00000    
         3      7125   F  0.350000       110.000       180.000    
         3      7129   F -0.350000       110.000       90.0000    
         3      7133   F -0.350000       110.000       270.000    
         3      7137   F  0.350000       110.000       0.00000    
         3      7141   F  0.350000       110.000       180.000    
         3      7145   F -0.350000       110.000       90.0000    
         3      7149   F -0.350000       110.000       270.000    
         3      7153   F  0.350000       110.000       0.00000    
         3      7157   F  0.350000       110.000       180.000    
         3      7161   F -0.350000       110.000       90.0000    
         3      7165   F -0.350000       110.000       270.000    
         3      7169   F  0.350000       110.000       0.00000    
         3      7173   F  0.350000       110.000       180.000    
         3      7177   F -0.350000       110.000       90.0000    
         3      7181   F -0.350000       110.000       270.000    
         3      7185   F  0.350000       110.000       0.00000    
         3      7189   F  0.350000       110.000       180.000    
         3      7193   F -0.350000       110.000       90.0000    
         3      7197   F -0.350000       110.000       270.000    
         3      7201   F  0.350000       110.000       0.00000    
         3      7205   F  0.350000       110.000       180.000    
         3      7209   F -0.350000       110.000       90.0000    
         3      7213   F -0.350000       110.000       270.000    
         3      7217   F  0.350000       110.000       0.00000    
         3      7221   F  0.350000       110.000       180.000    
         3      7225   F -0.350000       110.000       90.0000    
         3      7229   F -0.350000       110.000       270.000    
         3      7233   F  0.350000       110.000       0.00000    
         3      7237   F  0.350000       110.000       180.000    
         3      7241   F -0.350000       110.000       90.0000    
         3      7245   F -0.350000       110.000       270.000    
         3      7249   F  0.350000       110.000       0.00000    
         3      7253   F  0.350000       110.000       180.000    
         3      7257   F -0.350000       110.000       90.0000    
         3      7261   F -0.350000       110.000       270.000    
         3      7265   F  0.350000       110.000       0.00000    
         3      7269   F  0.350000       110.000       180.000    
         3      7273   F -0.350000       110.000       90.0000    
         3      7277   F -0.350000       110.000       270.000    
         3      7281   F  0.350000       110.000       0.00000    
         3      7285   F  0.350000       110.000       180.000    
         3      7289   F -0.350000       110.000       90.0000    
         3      7293   F -0.350000       110.000       270.000    
         3      7297   F  0.350000       110.000       0.00000    
         3      7301   F  0.350000       110.000       180.000    
         3      7305   F -0.350000       110.000       90.0000    
         3      7309   F -0.350000       110.000       270.000    
         3      7313   F  0.350000       110.000       0.00000    
         3      7317   F  0.350000       110.000       180.000    
         3      7321   F -0.350000       110.000       90.0000    
         3      7325   F -0.350000       110.000       270.000    
         3      7329   F  0.350000       110.000       0.00000    
         3      7333   F  0.350000       110.000       180.000    
         3      7337   F -0.350000       110.000       90.0000    
         3      7341   F -0.350000       110.000       270.000    
         3      7345   F  0.350000       110.000       0.00000    
         3      7349   F  0.350000       110.000       180.000    
         3      7353   F -0.350000       110.000       90.0000    
         3      7357   F -0.350000       110.000       270.000    
         3      7361   F  0.350000       110.000       0.00000    
         3      7365   F  0.350000       110.000       180.000    
         3      7369   F -0.350000       110.000       90.0000    
         3      7373   F -0.350000       110.000       270.000    
         3      7377   F  0.350000       110.000       0.00000    
         3      7381   F  0.350000       110.000       180.000    
         3      7385   F -0.350000       110.000       90.0000    
         3      7389   F -0.350000       110.000       270.000    
         3      7393   F  0.350000       110.000       0.00000    
         3      7397   F  0.350000       110.000       180.000    
         3      7401   F -0.350000       110.000       90.0000    
         3      7405   F -0.350000       110.000       270.000    
         3      7409   F  0.350000       110.000       0.00000    
         3      7413   F  0.350000       110.000       180.000    
         3      7417   F -0.350000       110.000       90.0000    
         3      7421   F -0.350000       110.000       270.000    
         3      7425   F  0.350000       110.000       0.00000    
         3      7429   F  0.350000       110.000       180.000    
         3      7433   F -0.350000       110.000       90.0000    
         3      7437   F -0.350000       110.000       270.000    
         3      7441   F  0.350000       110.000       0.00000    
         3      7445   F  0.350000       110.000       180.000    
         3      7449   F -0.350000       110.000       90.0000    
         3      7453   F -0.350000       110.000       270.000    
         3      7457   F  0.350000       110.000       0.00000    
         3      7461   F  0.350000       110.000       180.000    
         3      7465   F -0.350000       110.000       90.0000    
         3      7469   F -0.350000       110.000       270.000    
         3      7473   F  0.350000       110.000       0.00000    
         3      7477   F  0.350000       110.000       180.000    
         3      7481   F -0.350000       110.000       90.0000    
         3      7485   F -0.350000       110.000       270.000    
         3      7489   F  0.350000       110.000       0.00000    
         3      7493   F  0.350000       110.000       180.000    
         3      7497   F -0.350000       110.000       90.0000    
         3      7501   F -0.350000       110.000       270.000    
         3      7505   F  0.350000       110.000       0.00000    
         3      7509   F  0.350000       110.000       180.000    
         3      7513   F -0.350000       110.000       90.0000    
         3      7517   F -0.350000       110.000       270.000    
         3      7521   F  0.350000       110.000       0.00000    
         3      7525   F  0.350000       110.000       180.000    
         3      7529   F -0.350000       110.000       90.0000    
         3      7533   F -0.350000       110.000       270.000    
         3      7537   F  0.350000       110.000       0.00000    
         3      7541   F  0.350000       110.000       180.000    
         3      7545   F -0.350000       110.000       90.0000    
         3      7549   F -0.350000       110.000       270.000    
         3      7553   F  0.350000       110.000       0.00000    
         3      7557   F  0.350000       110.000       180.000    
         3      7561   F -0.350000       110.000       90.0000    
         3      7565   F -0.350000       110.000       270.000    
         3      7569   F  0.350000       110.000       0.00000    
         3      7573   F  0.350000       110.000       180.000    
         3      7577   F -0.350000       110.000       90.0000    
         3      7581   F -0.350000       110.000       270.000    
         3      7585   F  0.350000       110.000       0.00000    
         3      7589   F  0.350000       110.000       180.000    
         3      7593   F -0.350000       110.000       90.0000    
         3      7597   F -0.350000       110.000       270.000    
         3      7601   F  0.350000       110.000       0.00000    
         3      7605   F  0.350000       110.000       180.000    
         3      7609   F -0.350000       110.000       90.0000    
         3      7613   F -0.350000       110.000       270.000    
         3      7617   F  0.350000       110.000       0.00000    
         3      7621   F  0.350000       110.000       180.000    
         3      7625   F -0.350000       110.000       90.0000    
         3      7629   F -0.350000       110.000       270.000    
         3      7633   F  0.350000       110.000       0.00000    
         3      7637   F  0.350000       110.000       180.000    
         3      7641   F -0.350000       110.000       90.0000    
         3      7645   F -0.350000       110.000       270.000    
         3      7649   F  0.350000       110.000       0.00000    
         3      7653   F  0.350000       110.000       180.000    
         3      7657   F -0.350000       110.000       90.0000    
         3      7661   F -0.350000       110.000       270.000    
         3      7665   F  0.350000       110.000       0.00000    
         3      7669   F  0.350000       110.000       180.000    
         3      7673   F -0.350000       110.000       90.0000    
         3      7677   F -0.350000       110.000       270.000    
         3      7681   F  0.350000       110.000       0.00000    
         3      7685   F  0.350000       110.000       180.000    
         3      7689   F -0.350000       110.000       90.0000    
         3      7693   F -0.350000       110.000       270.000    
         3      7697   F  0.350000       110.000       0.00000    
         3      7701   F  0.350000       110.000       180.000    
         3      7705   F -0.350000       110.000       90.0000    
         3      7709   F -0.350000       110.000       270.000    
         3      7713   F  0.350000       110.000       0.00000    
         3      7717   F  0.350000       110.000       180.000    
         3      7721   F -0.350000       110.000       90.0000    
         3      7725   F -0.350000       110.000       270.000    
         3      7729   F  0.350000       110.000       0.00000    
         3      7733   F  0.350000       110.000       180.000    
         3      7737   F -0.350000       110.000       90.0000    
         3      7741   F -0.350000       110.000       270.000    
         3      7745   F  0.350000       110.000       0.00000    
         3      7749   F  0.350000       110.000       180.000    
         3      7753   F -0.350000       110.000       90.0000    
         3      7757   F -0.350000       110.000       270.000    
         3      7761   F  0.350000       110.000       0.00000    
         3      7765   F  0.350000       110.000       180.000    
         3      7769   F -0.350000       110.000       90.0000    
         3      7773   F -0.350000       110.000       270.000    
         3      7777   F  0.350000       110.000       0.00000    
         3      7781   F  0.350000       110.000       180.000    
         3      7785   F -0.350000       110.000       90.0000    
         3      7789   F -0.350000       110.000       270.000    
         3      7793   F  0.350000       110.000       0.00000    
         3      7797   F  0.350000       110.000       180.000    
         3      7801   F -0.350000       110.000       90.0000    
         3      7805   F -0.350000       110.000       270.000    
         3      7809   F  0.350000       110.000       0.00000    
         3      7813   F  0.350000       110.000       180.000    
         3      7817   F -0.350000       110.000       90.0000    
         3      7821   F -0.350000       110.000       270.000    
         3      7825   F  0.350000       110.000       0.00000    
         3      7829   F  0.350000       110.000       180.000    
         3      7833   F -0.350000       110.000       90.0000    
         3      7837   F -0.350000       110.000       270.000    
         3      7841   F  0.350000       110.000       0.00000    
         3      7845   F  0.350000       110.000       180.000    
         3      7849   F -0.350000       110.000       90.0000    
         3      7853   F -0.350000       110.000       270.000    
         3      7857   F  0.350000       110.000       0.00000    
         3      7861   F  0.350000       110.000       180.000    
         3      7865   F -0.350000       110.000       90.0000    
         3      7869   F -0.350000       110.000       270.000    
         3      7873   F  0.350000       110.000       0.00000    
         3      7877   F  0.350000       110.000       180.000    
         3      7881   F -0.350000       110.000       90.0000    
         3      7885   F -0.350000       110.000       270.000    
         3      7889   F  0.350000       110.000       0.00000    
         3      7893   F  0.350000       110.000       180.000    
         3      7897   F -0.350000       110.000       90.0000    
         3      7901   F -0.350000       110.000       270.000    
         3      7905   F  0.350000       110.000       0.00000    
         3      7909   F  0.350000       110.000       180.000    
         3      7913   F -0.350000       110.000       90.0000    
         3      7917   F -0.350000       110.000       270.000    
         3      7921   F  0.350000       110.000       0.00000    
         3      7925   F  0.350000       110.000       180.000    
         3      7929   F -0.350000       110.000       90.0000    
         3      7933   F -0.350000       110.000       270.000    
         3      7937   F  0.350000       110.000       0.00000    
         3      7941   F  0.350000       110.000       180.000    
         3      7945   F -0.350000       110.000       90.0000    
         3      7949   F -0.350000       110.000       270.000    
         3      7953   F  0.350000       110.000       0.00000    
         3      7957   F  0.350000       110.000       180.000    
         3      7961   F -0.350000       110.000       90.0000    
         3      7965   F -0.350000       110.000       270.000    
         3      7969   F  0.350000       110.000       0.00000    
         3      7973   F  0.350000       110.000       180.000    
         3      7977   F -0.350000       110.000       90.0000    
         3      7981   F -0.350000       110.000       270.000    
         3      7985   F  0.350000       110.000       0.00000    
         3      7989   F  0.350000       110.000       180.000    
         3      7993   F -0.350000       110.000       90.0000    
         3      7997   F -0.350000       110.000       270.000    
         3      8001   F  0.350000       110.000       0.00000    
         3      8005   F  0.350000       110.000       180.000    
         3      8009   F -0.350000       110.000       90.0000    
         3      8013   F -0.350000       110.000       270.000    
         3      8017   F  0.350000       110.000       0.00000    
         3      8021   F  0.350000       110.000       180.000    
         3      8025   F -0.350000       110.000       90.0000    
         3      8029   F -0.350000       110.000       270.000    
         3      8033   F  0.350000       110.000       0.00000    
         3      8037   F  0.350000       110.000       180.000    
         3      8041   F -0.350000       110.000       90.0000    
         3      8045   F -0.350000       110.000       270.000    
         3      8049   F  0.350000       110.000       0.00000    
         3      8053   F  0.350000       110.000       180.000    
         3      8057   F -0.350000       110.000       90.0000    
         3      8061   F -0.350000       110.000       270.000    
         3      8065   F  0.350000       110.000       0.00000    
         3      8069   F  0.350000       110.000       180.000    
         3      8073   F -0.350000       110.000       90.0000    
         3      8077   F -0.350000       110.000       270.000    
         3      8081   F  0.350000       110.000       0.00000    
         3      8085   F  0.350000       110.000       180.000    
         3      8089   F -0.350000       110.000       90.0000    
         3      8093   F -0.350000       110.000       270.000    
         3      8097   F  0.350000       110.000       0.00000    
         3      8101   F  0.350000       110.000       180.000    
         3      8105   F -0.350000       110.000       90.0000    
         3      8109   F -0.350000       110.000       270.000    
         3      8113   F  0.350000       110.000       0.00000    
         3      8117   F  0.350000       110.000       180.000    
         3      8121   F -0.350000       110.000       90.0000    
         3      8125   F -0.350000       110.000       270.000    
         3      8129   F  0.350000       110.000       0.00000    
         3      8133   F  0.350000       110.000       180.000    
         3      8137   F -0.350000       110.000       90.0000    
         3      8141   F -0.350000       110.000       270.000    
         3      8145   F  0.350000       110.000       0.00000    
         3      8149   F  0.350000       110.000       180.000    
         3      8153   F -0.350000       110.000       90.0000    
         3      8157   F -0.350000       110.000       270.000    
         3      8161   F  0.350000       110.000       0.00000    
         3      8165   F  0.350000       110.000       180.000    
         3      8169   F -0.350000       110.000       90.0000    
         3      8173   F -0.350000       110.000       270.000    
         3      8177   F  0.350000       110.000       0.00000    
         3      8181   F  0.350000       110.000       180.000    
         3      8185   F -0.350000       110.000       90.0000    
         3      8189   F -0.350000       110.000       270.000    
         3      8193   F  0.350000       110.000       0.00000    
         3      8197   F  0.350000       110.000       180.000    
         3      8201   F -0.350000       110.000       90.0000    
         3      8205   F -0.350000       110.000       270.000    
         3      8209   F  0.350000       110.000       0.00000    
         3      8213   F  0.350000       110.000       180.000    
         3      8217   F -0.350000       110.000       90.0000    
         3      8221   F -0.350000       110.000       270.000    
         3      8225   F  0.350000       110.000       0.00000    
         3      8229   F  0.350000       110.000       180.000    
         3      8233   F -0.350000       110.000       90.0000    
         3      8237   F -0.350000       110.000       270.000    
         3      8241   F  0.350000       110.000       0.00000    
         3      8245   F  0.350000       110.000       180.000    
         3      8249   F -0.350000       110.000       90.0000    
         3      8253   F -0.350000       110.000       270.000    
         3      8257   F  0.350000       110.000       0.00000    
         3      8261   F  0.350000       110.000       180.000    
         3      8265   F -0.350000       110.000       90.0000    
         3      8269   F -0.350000       110.000       270.000    
         3      8273   F  0.350000       110.000       0.00000    
         3      8277   F  0.350000       110.000       180.000    
         3      8281   F -0.350000       110.000       90.0000    
         3      8285   F -0.350000       110.000       270.000    
         3      8289   F  0.350000       110.000       0.00000    
         3      8293   F  0.350000       110.000       180.000    
         3      8297   F -0.350000       110.000       90.0000    
         3      8301   F -0.350000       110.000       270.000    
         3      8305   F  0.350000       110.000       0.00000    
         3      8309   F  0.350000       110.000       180.000    
         3      8313   F -0.350000       110.000       90.0000    
         3      8317   F -0.350000       110.000       270.000    
         3      8321   F  0.350000       110.000       0.00000    
         3      8325   F  0.350000       110.000       180.000    
         3      8329   F -0.350000       110.000       90.0000    
         3      8333   F -0.350000       110.000       270.000    
         3      8337   F  0.350000       110.000       0.00000    
         3      8341   F  0.350000       110.000       180.000    
         3      8345   F -0.350000       110.000       90.0000    
         3      8349   F -0.350000       110.000       270.000    
         3      8353   F  0.350000       110.000       0.00000    
         3      8357   F  0.350000       110.000       180.000    
         3      8361   F -0.350000       110.000       90.0000    
         3      8365   F -0.350000       110.000       270.000    
         3      8369   F  0.350000       110.000       0.00000    
         3      8373   F  0.350000       110.000       180.000    
         3      8377   F -0.350000       110.000       90.0000    
         3      8381   F -0.350000       110.000       270.000    
         3      8385   F  0.350000       110.000       0.00000    
         3      8389   F  0.350000       110.000       180.000    
         3      8393   F -0.350000       110.000       90.0000    
         3      8397   F -0.350000       110.000       270.000    
         3      8401   F  0.350000       110.000       0.00000    
         3      8405   F  0.350000       110.000       180.000    
         3      8409   F -0.350000       110.000       90.0000    
         3      8413   F -0.350000       110.000       270.000    
         3      8417   F  0.350000       110.000       0.00000    
         3      8421   F  0.350000       110.000       180.000    
         3      8425   F -0.350000       110.000       90.0000    
         3      8429   F -0.350000       110.000       270.000    
         3      8433   F  0.350000       110.000       0.00000    
         3      8437   F  0.350000       110.000       180.000    
         3      8441   F -0.350000       110.000       90.0000    
         3      8445   F -0.350000       110.000       270.000    
         3      8449   F  0.350000       110.000       0.00000    
         3      8453   F  0.350000       110.000       180.000    
         3      8457   F -0.350000       110.000       90.0000    
         3      8461   F -0.350000       110.000       270.000    
         3      8465   F  0.350000       110.000       0.00000    
         3      8469   F  0.350000       110.000       180.000    
         3      8473   F -0.350000       110.000       90.0000    
         3      8477   F -0.350000       110.000       270.000    
         3      8481   F  0.350000       110.000       0.00000    
         3      8485   F  0.350000       110.000       180.000    
         3      8489   F -0.350000       110.000       90.0000    
         3      8493   F -0.350000       110.000       270.000    
         3      8497   F  0.350000       110.000       0.00000    
         3      8501   F  0.350000       110.000       180.000    
         3      8505   F -0.350000       110.000       90.0000    
         3      8509   F -0.350000       110.000       270.000    
         3      8513   F  0.350000       110.000       0.00000    
         3      8517   F  0.350000       110.000       180.000    
         3      8521   F -0.350000       110.000       90.0000    
         3      8525   F -0.350000       110.000       270.000    
         3      8529   F  0.350000       110.000       0.00000    
         3      8533   F  0.350000       110.000       180.000    
         3      8537   F -0.350000       110.000       90.0000    
         3      8541   F -0.350000       110.000       270.000    
         3      8545   F  0.350000       110.000       0.00000    
         3      8549   F  0.350000       110.000       180.000    
         3      8553   F -0.350000       110.000       90.0000    
         3      8557   F -0.350000       110.000       270.000    
         3      8561   F  0.350000       110.000       0.00000    
         3      8565   F  0.350000       110.000       180.000    
         3      8569   F -0.350000       110.000       90.0000    
         3      8573   F -0.350000       110.000       270.000    
         3      8577   F  0.350000       110.000       0.00000    
         3      8581   F  0.350000       110.000       180.000    
         3      8585   F -0.350000       110.000       90.0000    
         3      8589   F -0.350000       110.000       270.000    
         3      8593   F  0.350000       110.000       0.00000    
         3      8597   F  0.350000       110.000       180.000    
         3      8601   F -0.350000       110.000       90.0000    
         3      8605   F -0.350000       110.000       270.000    
         3      8609   F  0.350000       110.000       0.00000    
         3      8613   F  0.350000       110.000       180.000    
         3      8617   F -0.350000       110.000       90.0000    
         3      8621   F -0.350000       110.000       270.000    
         3      8625   F  0.350000       110.000       0.00000    
         3      8629   F  0.350000       110.000       180.000    
         3      8633   F -0.350000       110.000       90.0000    
         3      8637   F -0.350000       110.000       270.000    
         3      8641   F  0.350000       110.000       0.00000    
         3      8645   F  0.350000       110.000       180.000    
         3      8649   F -0.350000       110.000       90.0000    
         3      8653   F -0.350000       110.000       270.000    
         3      8657   F  0.350000       110.000       0.00000    
         3      8661   F  0.350000       110.000       180.000    
         3      8665   F -0.350000       110.000       90.0000    
         3      8669   F -0.350000       110.000       270.000    
         3      8673   F  0.350000       110.000       0.00000    
         3      8677   F  0.350000       110.000       180.000    
         3      8681   F -0.350000       110.000       90.0000    
         3      8685   F -0.350000       110.000       270.000    
         3      8689   F  0.350000       110.000       0.00000    
         3      8693   F  0.350000       110.000       180.000    
         3      8697   F -0.350000       110.000       90.0000    
         3      8701   F -0.350000       110.000       270.000    
         3      8705   F  0.350000       110.000       0.00000    
         3      8709   F  0.350000       110.000       180.000    
         3      8713   F -0.350000       110.000       90.0000    
         3      8717   F -0.350000       110.000       270.000    
         3      8721   F  0.350000       110.000       0.00000    
         3      8725   F  0.350000       110.000       180.000    
         3      8729   F -0.350000       110.000       90.0000    
         3      8733   F -0.350000       110.000       270.000    
         3      8737   F  0.350000       110.000       0.00000    
         3      8741   F  0.350000       110.000       180.000    
         3      8745   F -0.350000       110.000       90.0000    
         3      8749   F -0.350000       110.000       270.000    
         3      8753   F  0.350000       110.000       0.00000    
         3      8757   F  0.350000       110.000       180.000    
         3      8761   F -0.350000       110.000       90.0000    
         3      8765   F -0.350000       110.000       270.000    
         3      8769   F  0.350000       110.000       0.00000    
         3      8773   F  0.350000       110.000       180.000    
         3      8777   F -0.350000       110.000       90.0000    
         3      8781   F -0.350000       110.000       270.000    
         3      8785   F  0.350000       110.000       0.00000    
         3      8789   F  0.350000       110.000       180.000    
         3      8793   F -0.350000       110.000       90.0000    
         3      8797   F -0.350000       110.000       270.000    
         3      8801   F  0.350000       110.000       0.00000    
         3      8805   F  0.350000       110.000       180.000    
         3      8809   F -0.350000       110.000       90.0000    
         3      8813   F -0.350000       110.000       270.000    
         3      8817   F  0.350000       110.000       0.00000    
         3      8821   F  0.350000       110.000       180.000    
         3      8825   F -0.350000       110.000       90.0000    
         3      8829   F -0.350000       110.000       270.000    
         3      8833   F  0.350000       110.000       0.00000    
         3      8837   F  0.350000       110.000       180.000    
         3      8841   F -0.350000       110.000       90.0000    
         3      8845   F -0.350000       110.000       270.000    
         3      8849   F  0.350000       110.000       0.00000    
         3      8853   F  0.350000       110.000       180.000    
         3      8857   F -0.350000       110.000       90.0000    
         3      8861   F -0.350000       110.000       270.000    
         3      8865   F  0.350000       110.000       0.00000    
         3      8869   F  0.350000       110.000       180.000    
         3      8873   F -0.350000       110.000       90.0000    
         3      8877   F -0.350000       110.000       270.000    
         3      8881   F  0.350000       110.000       0.00000    
         3      8885   F  0.350000       110.000       180.000    
         3      8889   F -0.350000       110.000       90.0000    
         3      8893   F -0.350000       110.000       270.000    
         3      8897   F  0.350000       110.000       0.00000    
         3      8901   F  0.350000       110.000       180.000    
         3      8905   F -0.350000       110.000       90.0000    
         3      8909   F -0.350000       110.000       270.000    
         3      8913   F  0.350000       110.000       0.00000    
         3      8917   F  0.350000       110.000       180.000    
         3      8921   F -0.350000       110.000       90.0000    
         3      8925   F -0.350000       110.000       270.000    
         3      8929   F  0.350000       110.000       0.00000    
         3      8933   F  0.350000       110.000       180.000    
         3      8937   F -0.350000       110.000       90.0000    
         3      8941   F -0.350000       110.000       270.000    
         3      8945   F  0.350000       110.000       0.00000    
         3      8949   F  0.350000       110.000       180.000    
         3      8953   F -0.350000       110.000       90.0000    
         3      8957   F -0.350000       110.000       270.000    
         3      8961   F  0.350000       110.000       0.00000    
         3      8965   F  0.350000       110.000       180.000    
         3      8969   F -0.350000       110.000       90.0000    
         3      8973   F -0.350000       110.000       270.000    
         3      8977   F  0.350000       110.000       0.00000    
         3      8981   F  0.350000       110.000       180.000    
         3      8985   F -0.350000       110.000       90.0000    
         3      8989   F -0.350000       110.000       270.000    
         3      8993   F  0.350000       110.000       0.00000    
         3      8997   F  0.350000       110.000       180.000    
         3      9001   F -0.350000       110.000       90.0000    
         3      9005   F -0.350000       110.000       270.000    
         3      9009   F  0.350000       110.000       0.00000    
         3      9013   F  0.350000       110.000       180.000    
         3      9017   F -0.350000       110.000       90.0000    
         3      9021   F -0.350000       110.000       270.000    
         3      9025   F  0.350000       110.000       0.00000    
         3      9029   F  0.350000       110.000       180.000    
         3      9033   F -0.350000       110.000       90.0000    
         3      9037   F -0.350000       110.000       270.000    
         3      9041   F  0.350000       110.000       0.00000    
         3      9045   F  0.350000       110.000       180.000    
         3      9049   F -0.350000       110.000       90.0000    
         3      9053   F -0.350000       110.000       270.000    
         3      9057   F  0.350000       110.000       0.00000    
         3      9061   F  0.350000       110.000       180.000    
         3      9065   F -0.350000       110.000       90.0000    
         3      9069   F -0.350000       110.000       270.000    
         3      9073   F  0.350000       110.000       0.00000    
         3      9077   F  0.350000       110.000       180.000    
         3      9081   F -0.350000       110.000       90.0000    
         3      9085   F -0.350000       110.000       270.000    
         3      9089   F  0.350000       110.000       0.00000    
         3      9093   F  0.350000       110.000       180.000    
         3      9097   F -0.350000       110.000       90.0000    
         3      9101   F -0.350000       110.000       270.000    
         3      9105   F  0.350000       110.000       0.00000    
         3      9109   F  0.350000       110.000       180.000    
         3      9113   F -0.350000       110.000       90.0000    
         3      9117   F -0.350000       110.000       270.000    
         3      9121   F  0.350000       110.000       0.00000    
         3      9125   F  0.350000       110.000       180.000    
         3      9129   F -0.350000       110.000       90.0000    
         3      9133   F -0.350000       110.000       270.000    
         3      9137   F  0.350000       110.000       0.00000    
         3      9141   F  0.350000       110.000       180.000    
         3      9145   F -0.350000       110.000       90.0000    
         3      9149   F -0.350000       110.000       270.000    
         3      9153   F  0.350000       110.000       0.00000    
         3      9157   F  0.350000       110.000       180.000    
         3      9161   F -0.350000       110.000       90.0000    
         3      9165   F -0.350000       110.000       270.000    
         3      9169   F  0.350000       110.000       0.00000    
         3      9173   F  0.350000       110.000       180.000    
         3      9177   F -0.350000       110.000       90.0000    
         3      9181   F -0.350000       110.000       270.000    
         3      9185   F  0.350000       110.000       0.00000    
         3      9189   F  0.350000       110.000       180.000    
         3      9193   F -0.350000       110.000       90.0000    
         3      9197   F -0.350000       110.000       270.000    
         3      9201   F  0.350000       110.000       0.00000    
         3      9205   F  0.350000       110.000       180.000    
         3      9209   F -0.350000       110.000       90.0000    
         3      9213   F -0.350000       110.000       270.000    
         3      9217   F  0.350000       110.000       0.00000    
         3      9221   F  0.350000       110.000       180.000    
         3      9225   F -0.350000       110.000       90.0000    
         3      9229   F -0.350000       110.000       270.000    
         3      9233   F  0.350000       110.000       0.00000    
         3      9237   F  0.350000       110.000       180.000    
         3      9241   F -0.350000       110.000       90.0000    
         3      9245   F -0.350000       110.000       270.000    
         3      9249   F  0.350000       110.000       0.00000    
         3      9253   F  0.350000       110.000       180.000    
         3      9257   F -0.350000       110.000       90.0000    
         3      9261   F -0.350000       110.000       270.000    
         3      9265   F  0.350000       110.000       0.00000    
         3      9269   F  0.350000       110.000       180.000    
         3      9273   F -0.350000       110.000       90.0000    
         3      9277   F -0.350000       110.000       270.000    
         3      9281   F  0.350000       110.000       0.00000    
         3      9285   F  0.350000       110.000       180.000    
         3      9289   F -0.350000       110.000       90.0000    
         3      9293   F -0.350000       110.000       270.000    
         3      9297   F  0.350000       110.000       0.00000    
         3      9301   F  0.350000       110.000       180.000    
         3      9305   F -0.350000       110.000       90.0000    
         3      9309   F -0.350000       110.000       270.000    
         3      9313   F  0.350000       110.000       0.00000    
         3      9317   F  0.350000       110.000       180.000    
         3      9321   F -0.350000       110.000       90.0000    
         3      9325   F -0.350000       110.000       270.000    
         3      9329   F  0.350000       110.000       0.00000    
         3      9333   F  0.350000       110.000       180.000    
         3      9337   F -0.350000       110.000       90.0000    
         3      9341   F -0.350000       110.000       270.000    
         3      9345   F  0.350000       110.000       0.00000    
         3      9349   F  0.350000       110.000       180.000    
         3      9353   F -0.350000       110.000       90.0000    
         3      9357   F -0.350000       110.000       270.000    
         3      9361   F  0.350000       110.000       0.00000    
         3      9365   F  0.350000       110.000       180.000    
         3      9369   F -0.350000       110.000       90.0000    
         3      9373   F -0.350000       110.000       270.000    
         3      9377   F  0.350000       110.000       0.00000    
         3      9381   F  0.350000       110.000       180.000    
         3      9385   F -0.350000       110.000       90.0000    
         3      9389   F -0.350000       110.000       270.000    
         3      9393   F  0.350000       110.000       0.00000    
         3      9397   F  0.350000       110.000       180.000    
         3      9401   F -0.350000       110.000       90.0000    
         3      9405   F -0.350000       110.000       270.000    
         3      9409   F  0.350000       110.000       0.00000    
         3      9413   F  0.350000       110.000       180.000    
         3      9417   F -0.350000       110.000       90.0000    
         3      9421   F -0.350000       110.000       270.000    
         3      9425   F  0.350000       110.000       0.00000    
         3      9429   F  0.350000       110.000       180.000    
         3      9433   F -0.350000       110.000       90.0000    
         3      9437   F -0.350000       110.000       270.000    
         3      9441   F  0.350000       110.000       0.00000    
         3      9445   F  0.350000       110.000       180.000    
         3      9449   F -0.350000       110.000       90.0000    
         3      9453   F -0.350000       110.000       270.000    
         3      9457   F  0.350000       110.000       0.00000    
         3      9461   F  0.350000       110.000       180.000    
         3      9465   F -0.350000       110.000       90.0000    
         3      9469   F -0.350000       110.000       270.000    
         3      9473   F  0.350000       110.000       0.00000    
         3      9477   F  0.350000       110.000       180.000    
         3      9481   F -0.350000       110.000       90.0000    
         3      9485   F -0.350000       110.000       270.000    
         3      9489   F  0.350000       110.000       0.00000    
         3      9493   F  0.350000       110.000       180.000    
         3      9497   F -0.350000       110.000       90.0000    
         3      9501   F -0.350000       110.000       270.000    
         3      9505   F  0.350000       110.000       0.00000    
         3      9509   F  0.350000       110.000       180.000    
         3      9513   F -0.350000       110.000       90.0000    
         3      9517   F -0.350000       110.000       270.000    
         3      9521   F  0.350000       110.000       0.00000    
         3      9525   F  0.350000       110.000       180.000    
         3      9529   F -0.350000       110.000       90.0000    
         3      9533   F -0.350000       110.000       270.000    
         3      9537   F  0.350000       110.000       0.00000    
         3      9541   F  0.350000       110.000       180.000    
         3      9545   F -0.350000       110.000       90.0000    
         3      9549   F -0.350000       110.000       270.000    
         3      9553   F  0.350000       110.000       0.00000    
         3      9557   F  0.350000       110.000       180.000    
         3      9561   F -0.350000       110.000       90.0000    
         3      9565   F -0.350000       110.000       270.000    
         3      9569   F  0.350000       110.000       0.00000    
         3      9573   F  0.350000       110.000       180.000    
         3      9577   F -0.350000       110.000       90.0000    
         3      9581   F -0.350000       110.000       270.000    
         3      9585   F  0.350000       110.000       0.00000    
         3      9589   F  0.350000       110.000       180.000    
         3      9593   F -0.350000       110.000       90.0000    
         3      9597   F -0.350000       110.000       270.000    
         3      9601   F  0.350000       110.000       0.00000    
         3      9605   F  0.350000       110.000       180.000    
         3      9609   F -0.350000       110.000       90.0000    
         3      9613   F -0.350000       110.000       270.000    
         3      9617   F  0.350000       110.000       0.00000    
         3      9621   F  0.350000       110.000       180.000    
         3      9625   F -0.350000       110.000       90.0000    
         3      9629   F -0.350000       110.000       270.000    
         3      9633   F  0.350000       110.000       0.00000    
         3      9637   F  0.350000       110.000       180.000    
         3      9641   F -0.350000       110.000       90.0000    
         3      9645   F -0.350000       110.000       270.000    
         3      9649   F  0.350000       110.000       0.00000    
         3      9653   F  0.350000       110.000       180.000    
         3      9657   F -0.350000       110.000       90.0000    
         3      9661   F -0.350000       110.000       270.000    
         3      9665   F  0.350000       110.000       0.00000    
         3      9669   F  0.350000       110.000       180.000    
         3      9673   F -0.350000       110.000       90.0000    
         3      9677   F -0.350000       110.000       270.000    
         3      9681   F  0.350000       110.000       0.00000    
         3      9685   F  0.350000       110.000       180.000    
         3      9689   F -0.350000       110.000       90.0000    
         3      9693   F -0.350000       110.000       270.000    
         3      9697   F  0.350000       110.000       0.00000    
         3      9701   F  0.350000       110.000       180.000    
         3      9705   F -0.350000       110.000       90.0000    
         3      9709   F -0.350000       110.000       270.000    
         3      9713   F  0.350000       110.000       0.00000    
         3      9717   F  0.350000       110.000       180.000    
         3      9721   F -0.350000       110.000       90.0000    
         3      9725   F -0.350000       110.000       270.000    
         3      9729   F  0.350000       110.000       0.00000    
         3      9733   F  0.350000       110.000       180.000    
         3      9737   F -0.350000       110.000       90.0000    
         3      9741   F -0.350000       110.000       270.000    
         3      9745   F  0.350000       110.000       0.00000    
         3      9749   F  0.350000       110.000       180.000    
         3      9753   F -0.350000       110.000       90.0000    
         3      9757   F -0.350000       110.000       270.000    
         3      9761   F  0.350000       110.000       0.00000    
         3      9765   F  0.350000       110.000       180.000    
         3      9769   F -0.350000       110.000       90.0000    
         3      9773   F -0.350000       110.000       270.000    
         3      9777   F  0.350000       110.000       0.00000    
         3      9781   F  0.350000       110.000       180.000    
         3      9785   F -0.350000       110.000       90.0000    
         3      9789   F -0.350000       110.000       270.000    
         3      9793   F  0.350000       110.000       0.00000    
         3      9797   F  0.350000       110.000       180.000    
         3      9801   F -0.350000       110.000       90.0000    
         3      9805   F -0.350000       110.000       270.000    
         3      9809   F  0.350000       110.000       0.00000    
         3      9813   F  0.350000       110.000       180.000    
         3      9817   F -0.350000       110.000       90.0000    
         3      9821   F -0.350000       110.000       270.000    
         3      9825   F  0.350000       110.000       0.00000    
         3      9829   F  0.350000       110.000       180.000    
         3      9833   F -0.350000       110.000       90.0000    
         3      9837   F -0.350000       110.000       270.000    
         3      9841   F  0.350000       110.000       0.00000    
         3      9845   F  0.350000       110.000       180.000    
         3      9849   F -0.350000       110.000       90.0000    
         3      9853   F -0.350000       110.000       270.000    
         3      9857   F  0.350000       110.000       0.00000    
         3      9861   F  0.350000       110.000       180.000    
         3      9865   F -0.350000       110.000       90.0000    
         3      9869   F -0.350000       110.000       270.000    
         3      9873   F  0.350000       110.000       0.00000    
         3      9877   F  0.350000       110.000       180.000    
         3      9881   F -0.350000       110.000       90.0000    
         3      9885   F -0.350000       110.000       270.000    
         3      9889   F  0.350000       110.000       0.00000    
         3      9893   F  0.350000       110.000       180.000    
         3      9897   F -0.350000       110.000       90.0000    
         3      9901   F -0.350000       110.000       270.000    
         3      9905   F  0.350000       110.000       0.00000    
         3      9909   F  0.350000       110.000       180.000    
         3      9913   F -0.350000       110.000       90.0000    
         3      9917   F -0.350000       110.000       270.000    
         3      9921   F  0.350000       110.000       0.00000    
         3      9925   F  0.350000       110.000       180.000    
         3      9929   F -0.350000       110.000       90.0000    
         3      9933   F -0.350000       110.000       270.000    
         3      9937   F  0.350000       110.000       0.00000    
         3      9941   F  0.350000       110.000       180.000    
         3      9945   F -0.350000       110.000       90.0000    
         3      9949   F -0.350000       110.000       270.000    
         3      9953   F  0.350000       110.000       0.00000    
         3      9957   F  0.350000       110.000       180.000    
         3      9961   F -0.350000       110.000       90.0000    
         3      9965   F -0.350000       110.000       270.000    
         3      9969   F  0.350000       110.000       0.00000    
         3      9973   F  0.350000       110.000       180.000    
         3      9977   F -0.350000       110.000       90.0000    
         3      9981   F -0.350000       110.000       270.000    
         3      9985   F  0.350000       110.000       0.00000    
         3      9989   F  0.350000       110.000       180.000    
         3      9993   F -0.350000       110.000       90.0000    
         3      9997   F -0.350000       110.000       270.000    
        20        17        14        11        40        37        34        31
        60        57        54        51        80        77        74        71
       100        97        94        91       120       117       114       111
       140       137       134       131       160       157       154       151
       180       177       174       171       200       197       194       191
       220       217       214       211       240       237       234       231
       260       257       254       251       280       277       274       271
       300       297       294       291       320       317       314       311
       340       337       334       331       360       357       354       351
       380       377       374       371       400       397       394       391
       420       417       414       411       440       437       434       431
       460       457       454       451       480       477       474       471
       500       497       494       491       520       517       514       511
       540       537       534       531       560       557       554       551
       580       577       574       571       600       597       594       591
       620       617       614       611       640       637       634       631
       660       657       654       651       680       677       674       671
       700       697       694       691       720       717       714       711
       740       737       734       731       760       757       754       751
       780       777       774       771       800       797       794       791
       820       817       814       811       840       837       834       831
       860       857       854       851       880       877       874       871
       900       897       894       891       920       917       914       911
       940       937       934       931       960       957       954       951
       980       977       974       971      1000       997       994       991
      1020      1017      1014      1011      1040      1037      1034      1031
      1060      1057      1054      1051      1080      1077      1074      1071
      1100      1097      1094      1091      1120      1117      1114      1111
      1140      1137      1134      1131      1160      1157      1154      1151
      1180      1177      1174      1171      1200      1197      1194      1191
      1220      1217      1214      1211      1240      1237      1234      1231
      1260      1257      1254      1251      1280      1277      1274      1271
      1300      1297      1294      1291      1320      1317      1314      1311
      1340      1337      1334      1331      1360      1357      1354      1351
      1380      1377      1374      1371      1400      1397      1394      1391
      1420      1417      1414      1411      1440      1437      1434      1431
      1460      1457      1454      1451      1480      1477      1474      1471
      1500      1497      1494      1491      1520      1517      1514      1511
      1540      1537      1534      1531      1560      1557      1554      1551
      1580      1577      1574      1571      1600      1597      1594      1591
      1620      1617      1614      1611      1640      1637      1634      1631
      1660      1657      1654      1651      1680      1677      1674      1671
      1700      1697      1694      1691      1720      1717      1714      1711
      1740      1737      1734      1731      1760      1757      1754      1751
      1780      1777      1774      1771      1800      1797      1794      1791
      1820      1817      1814      1811      1840      1837      1834      1831
      1860      1857      1854      1851      1880      1877      1874      1871
      1900      1897      1894      1891      1920      1917      1914      1911
      1940      1937      1934      1931      1960      1957      1954      1951
      1980      1977      1974      1971      2000      1997      1994      1991
      2020      2017      2014      2011      2040      2037      2034      2031
      2060      2057      2054      2051      2080      2077      2074      2071
      2100      2097      2094      2091      2120      2117      2114      2111
      2140      2137      2134      2131      2160      2157      2154      2151
      2180      2177      2174      2171      2200      2197      2194      2191
      2220      2217      2214      2211      2240      2237      2234      2231
      2260      2257      2254      2251      2280      2277      2274      2271
      2300      2297      2294      2291      2320      2317      2314      2311
      2340      2337      2334      2331      2360      2357      2354      2351
      2380      2377      2374      2371      2400      2397      2394      2391
      2420      2417      2414      2411      2440      2437      2434      2431
      2460      2457      2454      2451      2480      2477      2474      2471
      2500      2497      2494      2491      2520      2517      2514      2511
      2540      2537      2534      2531      2560      2557      2554      2551
      2580      2577      2574      2571      2600      2597      2594      2591
      2620      2617      2614      2611      2640      2637      2634      2631
      2660      2657      2654      2651      2680      2677      2674      2671
      2700      2697      2694      2691      2722      2709      2707      2705
      2723      2709      2707      2705      2724      2711      2707      2705
      2725      2711      2707      2705      2747      2734      2732      2730
      2748      2734      2732      2730      2749      2736      2732      2730
      2750      2736      2732      2730      2772      2759      2757      2755
      2773      2759      2757      2755      2774      2761      2757      2755
      2775      2761      2757      2755      2797      2784      2782      2780
      2798      2784      2782      2780      2799      2786      2782      2780
      2800      2786      2782      2780      2822      2809      2807      2805
      2823      2809      2807      2805      2824      2811      2807      2805
      2825      2811      2807      2805      2847      2834      2832      2830
      2848      2834      2832      2830      2849      2836      2832      2830
      2850      2836      2832      2830      2872      2859      2857      2855
      2873      2859      2857      2855      2874      2861      2857      2855
      2875      2861      2857      2855      2897      2884      2882      2880
      2898      2884      2882      2880      2899      2886      2882      2880
      2900      2886      2882      2880      2922      2909      2907      2905
      2923      2909      2907      2905      2924      2911      2907      2905
      2925      2911      2907      2905      2947      2934      2932      2930
      2948      2934      2932      2930      2949      2936      2932      2930
      2950      2936      2932      2930      2972      2959      2957      2955
      2973      2959      2957      2955      2974      2961      2957      2955
      2975      2961      2957      2955      2997      2984      2982      2980
      2998      2984      2982      2980      2999      2986      2982      2980
      3000      2986      2982      2980      3022      3009      3007      3005
      3023      3009      3007      3005      3024      3011      3007      3005
      3025      3011      3007      3005      3047      3034      3032      3030
      3048      3034      3032      3030      3049      3036      3032      3030
      3050      3036      3032      3030      3072      3059      3057      3055
      3073      3059      3057      3055      3074      3061      3057      3055
      3075      3061      3057      3055      3097      3084      3082      3080
      3098      3084      3082      3080      3099      3086      3082      3080
      3100      3086      3082      3080      3122      3109      3107      3105
      3123      3109      3107      3105      3124      3111      3107      3105
      3125      3111      3107      3105      3147      3134      3132      3130
      3148      3134      3132      3130      3149      3136      3132      3130
      3150      3136      3132      3130      3172      3159      3157      3155
      3173      3159      3157      3155      3174      3161      3157      3155
      3175      3161      3157      3155      3197      3184      3182      3180
      3198      3184      3182      3180      3199      3186      3182      3180
      3200      3186      3182      3180      3222      3209      3207      3205
      3223      3209      3207      3205      3224      3211      3207      3205
      3225      3211      3207      3205      3247      3234      3232      3230
      3248      3234      3232      3230      3249      3236      3232      3230
      3250      3236      3232      3230      3272      3259      3257      3255
      3273      3259      3257      3255      3274      3261      3257      3255
      3275      3261      3257      3255      3297      3284      3282      3280
      3298      3284      3282      3280      3299      3286      3282      3280
      3300      3286      3282      3280      3322      3309      3307      3305
      3323      3309      3307      3305      3324      3311      3307      3305
      3325      3311      3307      3305      3347      3334      3332      3330
      3348      3334      3332      3330      3349      3336      3332      3330
      3350      3336      3332      3330      3372      3359      3357      3355
      3373      3359      3357      3355      3374      3361      3357      3355
      3375      3361      3357      3355      3397      3384      3382      3380
      3398      3384      3382      3380      3399      3386      3382      3380
      3400      3386      3382      3380      3422      3409      3407      3405
      3423      3409      3407      3405      3424      3411      3407      3405
      3425      3411      3407      3405      3447      3434      3432      3430
      3448      3434      3432      3430      3449      3436      3432      3430
      3450      3436      3432      3430      3472      3459      3457      3455
      3473      3459      3457      3455      3474      3461      3457      3455
      3475      3461      3457      3455      3497      3484      3482      3480
      3498      3484      3482      3480      3499      3486      3482      3480
      3500      3486      3482      3480      3522      3509      3507      3505
      3523      3509      3507      3505      3524      3511      3507      3505
      3525      3511      3507      3505      3547      3534      3532      3530
      3548      3534      3532      3530      3549      3536      3532      3530
      3550      3536      3532      3530      3572      3559      3557      3555
      3573      3559      3557      3555      3574      3561      3557      3555
      3575      3561      3557      3555      3597      3584      3582      3580
      3598      3584      3582      3580      3599      3586      3582      3580
      3600      3586      3582      3580      3622      3609      3607      3605
      3623      3609      3607      3605      3624      3611      3607      3605
      3625      3611      3607      3605      3647      3634      3632      3630
      3648      3634      3632      3630      3649      3636      3632      3630
      3650      3636      3632      3630      3672      3659      3657      3655
      3673      3659      3657      3655      3674      3661      3657      3655
      3675      3661      3657      3655      3697      3684      3682      3680
      3698      3684      3682      3680      3699      3686      3682      3680
      3700      3686      3682      3680      3722      3709      3707      3705
      3723      3709      3707      3705      3724      3711      3707      3705
      3725      3711      3707      3705      3747      3734      3732      3730
      3748      3734      3732      3730      3749      3736      3732      3730
      3750      3736      3732      3730      3772      3759      3757      3755
      3773      3759      3757      3755      3774      3761      3757      3755
      3775      3761      3757      3755      3797      3784      3782      3780
      3798      3784      3782      3780      3799      3786      3782      3780
      3800      3786      3782      3780      3822      3809      3807      3805
      3823      3809      3807      3805      3824      3811      3807      3805
      3825      3811      3807      3805      3847      3834      3832      3830
      3848      3834      3832      3830      3849      3836      3832      3830
      3850      3836      3832      3830      3872      3859      3857      3855
      3873      3859      3857      3855      3874      3861      3857      3855
      3875      3861      3857      3855      3897      3884      3882      3880
      3898      3884      3882      3880      3899      3886      3882      3880
      3900      3886      3882      3880      3922      3909      3907      3905
      3923      3909      3907      3905      3924      3911      3907      3905
      3925      3911      3907      3905      3947      3934      3932      3930
      3948      3934      3932      3930      3949      3936      3932      3930
      3950      3936      3932      3930      3972      3959      3957      3955
      3973      3959      3957      3955      3974      3961      3957      3955
      3975      3961      3957      3955      3997      3984      3982      3980
      3998      3984      3982      3980      3999      3986      3982      3980
      4000      3986      3982      3980      4022      4009      4007      4005
      4023      4009      4007      4005      4024      4011      4007      4005
      4025      4011      4007      4005      4047      4034      4032      4030
      4048      4034      4032      4030      4049      4036      4032      4030
      4050      4036      4032      4030      4072      4059      4057      4055
      4073      4059      4057      4055      4074      4061      4057      4055
      4075      4061      4057      4055      4097      4084      4082      4080
      4098      4084      4082      4080      4099      4086      4082      4080
      4100      4086      4082      4080      4122      4109      4107      4105
      4123      4109      4107      4105      4124      4111      4107      4105
      4125      4111      4107      4105      4147      4134      4132      4130
      4148      4134      4132      4130      4149      4136      4132      4130
      4150      4136      4132      4130      4172      4159      4157      4155
      4173      4159      4157      4155      4174      4161      4157      4155
      4175      4161      4157      4155      4197      4184      4182      4180
      4198      4184      4182      4180      4199      4186      4182      4180
      4200      4186      4182      4180      4222      4209      4207      4205
      4223      4209      4207      4205      4224      4211      4207      4205
      4225      4211      4207      4205      4247      4234      4232      4230
      4248      4234      4232      4230      4249      4236      4232      4230
      4250      4236      4232      4230      4272      4259      4257      4255
      4273      4259      4257      4255      4274      4261      4257      4255
      4275      4261      4257      4255      4297      4284      4282      4280
      4298      4284      4282      4280      4299      4286      4282      4280
      4300      4286      4282      4280      4322      4309      4307      4305
      4323      4309      4307      4305      4324      4311      4307      4305
      4325      4311      4307      4305      4347      4334      4332      4330
      4348      4334      4332      4330      4349      4336      4332      4330
      4350      4336      4332      4330      4372      4359      4357      4355
      4373      4359      4357      4355      4374      4361      4357      4355
      4375      4361      4357      4355      4397      4384      4382      4380
      4398      4384      4382      4380      4399      4386      4382      4380
      4400      4386      4382      4380      4422      4409      4407      4405
      4423      4409      4407      4405      4424      4411      4407      4405
      4425      4411      4407      4405      4447      4434      4432      4430
      4448      4434      4432      4430      4449      4436      4432      4430
      4450      4436      4432      4430      4472      4459      4457      4455
      4473      4459      4457      4455      4474      4461      4457      4455
      4475      4461      4457      4455      4497      4484      4482      4480
      4498      4484      4482      4480      4499      4486      4482      4480
      4500      4486      4482      4480      4522      4509      4507      4505
      4523      4509      4507      4505      4524      4511      4507      4505
      4525      4511      4507      4505      4547      4534      4532      4530
      4548      4534      4532      4530      4549      4536      4532      4530
      4550      4536      4532      4530      4572      4559      4557      4555
      4573      4559      4557      4555      4574      4561      4557      4555
      4575      4561      4557      4555      4597      4584      4582      4580
      4598      4584      4582      4580      4599      4586      4582      4580
      4600      4586      4582      4580      4622      4609      4607      4605
      4623      4609      4607      4605      4624      4611      4607      4605
      4625      4611      4607      4605      4647      4634      4632      4630
      4648      4634      4632      4630      4649      4636      4632      4630
      4650      4636      4632      4630      4672      4659      4657      4655
      4673      4659      4657      4655      4674      4661      4657      4655
      4675      4661      4657      4655      4697      4684      4682      4680
      4698      4684      4682      4680      4699      4686      4682      4680
      4700      4686      4682      4680      4722      4709      4707      4705
      4723      4709      4707      4705      4724      4711      4707      4705
      4725      4711      4707      4705      4747      4734      4732      4730
      4748      4734      4732      4730      4749      4736      4732      4730
      4750      4736      4732      4730      4772      4759      4757      4755
      4773      4759      4757      4755      4774      4761      4757      4755
      4775      4761      4757      4755      4797      4784      4782      4780
      4798      4784      4782      4780      4799      4786      4782      4780
      4800      4786      4782      4780      4822      4809      4807      4805
      4823      4809      4807      4805      4824      4811      4807      4805
      4825      4811      4807      4805      4847      4834      4832      4830
      4848      4834      4832      4830      4849      4836      4832      4830
      4850      4836      4832      4830      4872      4859      4857      4855
      4873      4859      4857      4855      4874      4861      4857      4855
      4875      4861      4857      4855      4897      4884      4882      4880
      4898      4884      4882      4880      4899      4886      4882      4880
      4900      4886      4882      4880      4922      4909      4907      4905
      4923      4909      4907      4905      4924      4911      4907      4905
      4925      4911      4907      4905      4947      4934      4932      4930
      4948      4934      4932      4930      4949      4936      4932      4930
      4950      4936      4932      4930      4972      4959      4957      4955
      4973      4959      4957      4955      4974      4961      4957      4955
      4975      4961      4957      4955      4997      4984      4982      4980
      4998      4984      4982      4980      4999      4986      4982      4980
      5000      4986      4982      4980      5022      5009      5007      5005
      5023      5009      5007      5005      5024      5011      5007      5005
      5025      5011      5007      5005      5047      5034      5032      5030
      5048      5034      5032      5030      5049      5036      5032      5030
      5050      5036      5032      5030      5072      5059      5057      5055
      5073      5059      5057      5055      5074      5061      5057      5055
      5075      5061      5057      5055      5097      5084      5082      5080
      5098      5084      5082      5080      5099      5086      5082      5080
      5100      5086      5082      5080      5122      5109      5107      5105
      5123      5109      5107      5105      5124      5111      5107      5105
      5125      5111      5107      5105      5147      5134      5132      5130
      5148      5134      5132      5130      5149      5136      5132      5130
      5150      5136      5132      5130      5172      5159      5157      5155
      5173      5159      5157      5155      5174      5161      5157      5155
      5175      5161      5157      5155      5197      5184      5182      5180
      5198      5184      5182      5180      5199      5186      5182      5180
      5200      5186      5182      5180      5222      5209      5207      5205
      5223      5209      5207      5205      5224      5211      5207      5205
      5225      5211      5207      5205      5247      5234      5232      5230
      5248      5234      5232      5230      5249      5236      5232      5230
      5250      5236      5232      5230      5272      5259      5257      5255
      5273      5259      5257      5255      5274      5261      5257      5255
      5275      5261      5257      5255      5297      5284      5282      5280
      5298      5284      5282      5280      5299      5286      5282      5280
      5300      5286      5282      5280      5322      5309      5307      5305
      5323      5309      5307      5305      5324      5311      5307      5305
      5325      5311      5307      5305      5347      5334      5332      5330
      5348      5334      5332      5330      5349      5336      5332      5330
      5350      5336      5332      5330      5372      5359      5357      5355
      5373      5359      5357      5355      5374      5361      5357      5355
      5375      5361      5357      5355      5397      5384      5382      5380
      5398      5384      5382      5380      5399      5386      5382      5380
      5400      5386      5382      5380      5422      5409      5407      5405
      5423      5409      5407      5405      5424      5411      5407      5405
      5425      5411      5407      5405      5447      5434      5432      5430
      5448      5434      5432      5430      5449      5436      5432      5430
      5450      5436      5432      5430      5472      5459      5457      5455
      5473      5459      5457      5455      5474      5461      5457      5455
      5475      5461      5457      5455      5497      5484      5482      5480
      5498      5484      5482      5480      5499      5486      5482      5480
      5500      5486      5482      5480      5522      5509      5507      5505
      5523      5509      5507      5505      5524      5511      5507      5505
      5525      5511      5507      5505      5547      5534      5532      5530
      5548      5534      5532      5530      5549      5536      5532      5530
      5550      5536      5532      5530      5572      5559      5557      5555
      5573      5559      5557      5555      5574      5561      5557      5555
      5575      5561      5557      5555      5597      5584      5582      5580
      5598      5584      5582      5580      5599      5586      5582      5580
      5600      5586      5582      5580      5622      5609      5607      5605
      5623      5609      5607      5605      5624      5611      5607      5605
      5625      5611      5607      5605      5647      5634      5632      5630
      5648      5634      5632      5630      5649      5636      5632      5630
      5650      5636      5632      5630      5672      5659      5657      5655
      5673      5659      5657      5655      5674      5661      5657      5655
      5675      5661      5657      5655      5697      5684      5682      5680
      5698      5684      5682      5680      5699      5686      5682      5680
      5700      5686      5682      5680      5722      5709      5707      5705
      5723      5709      5707      5705      5724      5711      5707      5705
      5725      5711      5707      5705      5747      5734      5732      5730
      5748      5734      5732      5730      5749      5736      5732      5730
      5750      5736      5732      5730      5772      5759      5757      5755
      5773      5759      5757      5755      5774      5761      5757      5755
      5775      5761      5757      5755      5797      5784      5782      5780
      5798      5784      5782      5780      5799      5786      5782      5780
      5800      5786      5782      5780      5822      5809      5807      5805
      5823      5809      5807      5805      5824      5811      5807      5805
      5825      5811      5807      5805      5847      5834      5832      5830
      5848      5834      5832      5830      5849      5836      5832      5830
      5850      5836      5832      5830      5872      5859      5857      5855
      5873      5859      5857      5855      5874      5861      5857      5855
      5875      5861      5857      5855      5897      5884      5882      5880
      5898      5884      5882      5880      5899      5886      5882      5880
      5900      5886      5882      5880      5922      5909      5907      5905
      5923      5909      5907      5905      5924      5911      5907      5905
      5925      5911      5907      5905      5947      5934      5932      5930
      5948      5934      5932      5930      5949      5936      5932      5930
      5950      5936      5932      5930      5972      5959      5957      5955
      5973      5959      5957      5955      5974      5961      5957      5955
      5975      5961      5957      5955      5997      5984      5982      5980
      5998      5984      5982      5980      5999      5986      5982      5980
      6000      5986      5982      5980      6022      6009      6007      6005
      6023      6009      6007      6005      6024      6011      6007      6005
      6025      6011      6007      6005      6047      6034      6032      6030
      6048      6034      6032      6030      6049      6036      6032      6030
      6050      6036      6032      6030      6072      6059      6057      6055
      6073      6059      6057      6055      6074      6061      6057      6055
      6075      6061      6057      6055      6095      6092      6089      6086
      6115      6112      6109      6106      6135      6132      6129      6126
      6155      6152      6149      6146      6175      6172      6169      6166
      6195      6192      6189      6186      6215      6212      6209      6206
      6235      6232      6229      6226      6255      6252      6249      6246
      6275      6272      6269      6266      6295      6292      6289      6286
      6315      6312      6309      6306      6335      6332      6329      6326
      6355      6352      6349      6346      6375      6372      6369      6366
      6395      6392      6389      6386      6415      6412      6409      6406
      6435      6432      6429      6426      6455      6452      6449      6446
      6475      6472      6469      6466      6495      6492      6489      6486
      6515      6512      6509      6506      6535      6532      6529      6526
      6555      6552      6549      6546      6575      6572      6569      6566
      6595      6592      6589      6586      6615      6612      6609      6606
      6635      6632      6629      6626      6655      6652      6649      6646
      6675      6672      6669      6666      6695      6692      6689      6686
      6715      6712      6709      6706      6735      6732      6729      6726
      6755      6752      6749      6746      6775      6772      6769      6766
      6795      6792      6789      6786      6815      6812      6809      6806
      6835      6832      6829      6826      6855      6852      6849      6846
      6875      6872      6869      6866      6895      6892      6889      6886
      6915      6912      6909      6906      6935      6932      6929      6926
      6955      6952      6949      6946      6975      6972      6969      6966
      6995      6992      6989      6986      7015      7012      7009      7006
      7035      7032      7029      7026      7055      7052      7049      7046
      7075      7072      7069      7066      7095      7092      7089      7086
      7115      7112      7109      7106      7135      7132      7129      7126
      7155      7152      7149      7146      7175      7172      7169      7166
      7195      7192      7189      7186      7215      7212      7209      7206
      7235      7232      7229      7226      7255      7252      7249      7246
      7275      7272      7269      7266      7295      7292      7289      7286
      7315      7312      7309      7306      7335      7332      7329      7326
      7355      7352      7349      7346      7375      7372      7369      7366
      7395      7392      7389      7386      7415      7412      7409      7406
      7435      7432      7429      7426      7455      7452      7449      7446
      7475      7472      7469      7466      7495      7492      7489      7486
      7515      7512      7509      7506      7535      7532      7529      7526
      7555      7552      7549      7546      7575      7572      7569      7566
      7595      7592      7589      7586      7615      7612      7609      7606
      7635      7632      7629      7626      7655      7652      7649      7646
      7675      7672      7669      7666      7695      7692      7689      7686
      7715      7712      7709      7706      7735      7732      7729      7726
      7755      7752      7749      7746      7775      7772      7769      7766
      7795      7792      7789      7786      7815      7812      7809      7806
      7835      7832      7829      7826      7855      7852      7849      7846
      7875      7872      7869      7866      7895      7892      7889      7886
      7915      7912      7909      7906      7935      7932      7929      7926
      7955      7952      7949      7946      7975      7972      7969      7966
      7995      7992      7989      7986      8015      8012      8009      8006
      8035      8032      8029      8026      8055      8052      8049      8046
      8075      8072      8069      8066      8095      8092      8089      8086
      8115      8112      8109      8106      8135      8132      8129      8126
      8155      8152      8149      8146      8175      8172      8169      8166
      8195      8192      8189      8186      8215      8212      8209      8206
      8235      8232      8229      8226      8255      8252      8249      8246
      8275      8272      8269      8266      8295      8292      8289      8286
      8315      8312      8309      8306      8335      8332      8329      8326
      8355      8352      8349      8346      8375      8372      8369      8366
      8395      8392      8389      8386      8415      8412      8409      8406
      8435      8432      8429      8426      8455      8452      8449      8446
      8475      8472      8469      8466      8495      8492      8489      8486
      8515      8512      8509      8506      8535      8532      8529      8526
      8555      8552      8549      8546      8575      8572      8569      8566
      8595      8592      8589      8586      8615      8612      8609      8606
      8635      8632      8629      8626      8655      8652      8649      8646
      8675      8672      8669      8666      8695      8692      8689      8686
      8715      8712      8709      8706      8735      8732      8729      8726
      8755      8752      8749      8746      8775      8772      8769      8766
      8795      8792      8789      8786      8815      8812      8809      8806
      8835      8832      8829      8826      8855      8852      8849      8846
      8875      8872      8869      8866      8895      8892      8889      8886
      8915      8912      8909      8906      8935      8932      8929      8926
      8955      8952      8949      8946      8975      8972      8969      8966
      8995      8992      8989      8986      9015      9012      9009      9006
      9035      9032      9029      9026      9055      9052      9049      9046
      9075      9072      9069      9066      9095      9092      9089      9086
      9115      9112      9109      9106      9135      9132      9129      9126
      9155      9152      9149      9146      9175      9172      9169      9166
      9195      9192      9189      9186      9215      9212      9209      9206
      9235      9232      9229      9226      9255      9252      9249      9246
      9275      9272      9269      9266      9295      9292      9289      9286
      9315      9312      9309      9306      9335      9332      9329      9326
      9355      9352      9349      9346      9375      9372      9369      9366
      9395      9392      9389      9386      9415      9412      9409      9406
      9435      9432      9429      9426      9455      9452      9449      9446
      9475      9472      9469      9466      9495      9492      9489      9486
      9515      9512      9509      9506      9535      9532      9529      9526
      9555      9552      9549      9546      9575      9572      9569      9566
      9595      9592      9589      9586      9615      9612      9609      9606
      9635      9632      9629      9626      9655      9652      9649      9646
      9675      9672      9669      9666      9695      9692      9689      9686
      9715      9712      9709      9706      9735      9732      9729      9726
      9755      9752      9749      9746      9775      9772      9769      9766
      9795      9792      9789      9786      9815      9812      9809      9806
      9835      9832      9829      9826      9855      9852      9849      9846
      9875      9872      9869      9866      9895      9892      9889      9886
      9915      9912      9909      9906      9935      9932      9929      9926
      9955      9952      9949      9946      9975      9972      9969      9966
      9995      9992      9989      9986     10015     10012     10009     10006
     10035     10032     10029     10026     10055     10052     10049     10046
     10075     10072     10069     10066     10095     10092     10089     10086
     10115     10112     10109     10106     10135     10132     10129     10126
     10155     10152     10149     10146     10175     10172     10169     10166
     10195     10192     10189     10186     10215     10212     10209     10206
     10235     10232     10229     10226     10255     10252     10249     10246
     10275     10272     10269     10266     10295     10292     10289     10286
     10315     10312     10309     10306     10335     10332     10329     10326
     10355     10352     10349     10346     10375     10372     10369     10366
     10395     10392     10389     10386     10415     10412     10409     10406
     10435     10432     10429     10426     10455     10452     10449     10446
     10475     10472     10469     10466     10495     10492     10489     10486
     10515     10512     10509     10506     10535     10532     10529     10526
     10555     10552     10549     10546     10575     10572     10569     10566
     10595     10592     10589     10586     10615     10612     10609     10606
     10635     10632     10629     10626     10655     10652     10649     10646
     10675     10672     10669     10666     10695     10692     10689     10686
     10715     10712     10709     10706     10735     10732     10729     10726
     10755     10752     10749     10746     10775     10772     10769     10766
     10795     10792     10789     10786     10815     10812     10809     10806
     10835     10832     10829     10826     10855     10852     10849     10846
     10875     10872     10869     10866     10895     10892     10889     10886
     10915     10912     10909     10906     10935     10932     10929     10926
     10955     10952     10949     10946     10975     10972     10969     10966
     10995     10992     10989     10986     11015     11012     11009     11006
     11035     11032     11029     11026     11055     11052     11049     11046
     11075     11072     11069     11066     11095     11092     11089     11086
     11115     11112     11109     11106     11135     11132     11129     11126
     11155     11152     11149     11146     11175     11172     11169     11166
     11195     11192     11189     11186     11215     11212     11209     11206
     11235     11232     11229     11226     11255     11252     11249     11246
     11275     11272     11269     11266     11295     11292     11289     11286
     11315     11312     11309     11306     11335     11332     11329     11326
     11355     11352     11349     11346     11375     11372     11369     11366
     11395     11392     11389     11386     11415     11412     11409     11406
     11435     11432     11429     11426     11455     11452     11449     11446
     11475     11472     11469     11466     11495     11492     11489     11486
     11515     11512     11509     11506     11535     11532     11529     11526
     11555     11552     11549     11546     11575     11572     11569     11566
     11595     11592     11589     11586     11615     11612     11609     11606
     11635     11632     11629     11626     11655     11652     11649     11646
     11675     11672     11669     11666     11695     11692     11689     11686
     11715     11712     11709     11706     11735     11732     11729     11726
     11755     11752     11749     11746     11775     11772     11769     11766
     11795     11792     11789     11786     11815     11812     11809     11806
     11835     11832     11829     11826     11855     11852     11849     11846
     11875     11872     11869     11866     11895     11892     11889     11886
     11915     11912     11909     11906     11935     11932     11929     11926
     11955     11952     11949     11946     11975     11972     11969     11966
     11995     11992     11989     11986     12015     12012     12009     12006
     12035     12032     12029     12026     12055     12052     12049     12046
     12075     12072     12069     12066     12095     12092     12089     12086
     12115     12112     12109     12106     12135     12132     12129     12126
     12155     12152     12149     12146     12175     12172     12169     12166
     12195     12192     12189     12186     12215     12212     12209     12206
     12235     12232     12229     12226     12255     12252     12249     12246
     12275     12272     12269     12266     12295     12292     12289     12286
     12315     12312     12309     12306     12335     12332     12329     12326
     12355     12352     12349     12346     12375     12372     12369     12366
     12395     12392     12389     12386     12415     12412     12409     12406
     12435     12432     12429     12426     12455     12452     12449     12446
     12475     12472     12469     12466     12495     12492     12489     12486
     12515     12512     12509     12506     12535     12532     12529     12526
     12555     12552     12549     12546     12575     12572     12569     12566
     12595     12592     12589     12586     12615     12612     12609     12606
     12635     12632     12629     12626     12655     12652     12649     12646
     12675     12672     12669     12666     12695     12692     12689     12686
     12715     12712     12709     12706     12735     12732     12729     12726
     12755     12752     12749     12746     12775     12772     12769     12766
     12795     12792     12789     12786     12815     12812     12809     12806
     12835     12832     12829     12826     12855     12852     12849     12846
     12875     12872     12869     12866     12895     12892     12889     12886
     12915     12912     12909     12906     12935     12932     12929     12926
     12955     12952     12949     12946     12975     12972     12969     12966
     12995     12992     12989     12986     13015     13012     13009     13006
     13035     13032     13029     13026     13055     13052     13049     13046
     13075     13072     13069     13066     13095     13092     13089     13086
     13115     13112     13109     13106     13135     13132     13129     13126
     13155     13152     13149     13146     13175     13172     13169     13166
     13195     13192     13189     13186     13215     13212     13209     13206
     13235     13232     13229     13226     13255     13252     13249     13246
     13275     13272     13269     13266     13295     13292     13289     13286
     13315     13312     13309     13306     13335     13332     13329     13326
     13355     13352     13349     13346     13375     13372     13369     13366
     13397     13384     13382     13380     13398     13384     13382     13380
     13399     13386     13382     13395     13400     13386     13382     13395
     13422     13409     13407     13405     13423     13409     13407     13405
     13424     13411     13407     13420     13425     13411     13407     13420
     13447     13434     13432     13430     13448     13434     13432     13430
     13449     13436     13432     13445     13450     13436     13432     13445
     13472     13459     13457     13455     13473     13459     13457     13455
     13474     13461     13457     13470     13475     13461     13457     13470
     13497     13484     13482     13480     13498     13484     13482     13480
     13499     13486     13482     13495     13500     13486     13482     13495
     13522     13509     13507     13505     13523     13509     13507     13505
     13524     13511     13507     13520     13525     13511     13507     13520
     13547     13534     13532     13530     13548     13534     13532     13530
     13549     13536     13532     13545     13550     13536     13532     13545
     13572     13559     13557     13555     13573     13559     13557     13555
     13574     13561     13557     13570     13575     13561     13557     13570
     13597     13584     13582     13580     13598     13584     13582     13580
     13599     13586     13582     13595     13600     13586     13582     13595
     13622     13609     13607     13605     13623     13609     13607     13605
     13624     13611     13607     13620     13625     13611     13607     13620
     13647     13634     13632     13630     13648     13634     13632     13630
     13649     13636     13632     13645     13650     13636     13632     13645
     13672     13659     13657     13655     13673     13659     13657     13655
     13674     13661     13657     13670     13675     13661     13657     13670
     13697     13684     13682     13680     13698     13684     13682     13680
     13699     13686     13682     13695     13700     13686     13682     13695
     13722     13709     13707     13705     13723     13709     13707     13705
     13724     13711     13707     13720     13725     13711     13707     13720
     13747     13734     13732     13730     13748     13734     13732     13730
     13749     13736     13732     13745     13750     13736     13732     13745
     13772     13759     13757     13755     13773     13759     13757     13755
     13774     13761     13757     13770     13775     13761     13757     13770
     13797     13784     13782     13780     13798     13784     13782     13780
     13799     13786     13782     13795     13800     13786     13782     13795
     13822     13809     13807     13805     13823     13809     13807     13805
     13824     13811     13807     13820     13825     13811     13807     13820
     13847     13834     13832     13830     13848     13834     13832     13830
     13849     13836     13832     13845     13850     13836     13832     13845
     13872     13859     13857     13855     13873     13859     13857     13855
     13874     13861     13857     13870     13875     13861     13857     13870
     13897     13884     13882     13880     13898     13884     13882     13880
     13899     13886     13882     13895     13900     13886     13882     13895
     13922     13909     13907     13905     13923     13909     13907     13905
     13924     13911     13907     13920     13925     13911     13907     13920
     13947     13934     13932     13930     13948     13934     13932     13930
     13949     13936     13932     13945     13950     13936     13932     13945
     13972     13959     13957     13955     13973     13959     13957     13955
     13974     13961     13957     13970     13975     13961     13957     13970
     13997     13984     13982     13980     13998     13984     13982     13980
     13999     13986     13982     13995     14000     13986     13982     13995
     14022     14009     14007     14005     14023     14009     14007     14005
     14024     14011     14007     14020     14025     14011     14007     14020
     14047     14034     14032     14030     14048     14034     14032     14030
     14049     14036     14032     14045     14050     14036     14032     14045
     14072     14059     14057     14055     14073     14059     14057     14055
     14074     14061     14057     14070     14075     14061     14057     14070
     14097     14084     14082     14080     14098     14084     14082     14080
     14099     14086     14082     14095     14100     14086     14082     14095
     14122     14109     14107     14105     14123     14109     14107     14105
     14124     14111     14107     14120     14125     14111     14107     14120
     14147     14134     14132     14130     14148     14134     14132     14130
     14149     14136     14132     14145     14150     14136     14132     14145
     14172     14159     14157     14155     14173     14159     14157     14155
     14174     14161     14157     14170     14175     14161     14157     14170
     14197     14184     14182     14180     14198     14184     14182     14180
     14199     14186     14182     14195     14200     14186     14182     14195
     14222     14209     14207     14205     14223     14209     14207     14205
     14224     14211     14207     14220     14225     14211     14207     14220
     14247     14234     14232     14230     14248     14234     14232     14230
     14249     14236     14232     14245     14250     14236     14232     14245
     14272     14259     14257     14255     14273     14259     14257     14255
     14274     14261     14257     14270     14275     14261     14257     14270
     14297     14284     14282     14280     14298     14284     14282     14280
     14299     14286     14282     14295     14300     14286     14282     14295
     14322     14309     14307     14305     14323     14309     14307     14305
     14324     14311     14307     14320     14325     14311     14307     14320
     14347     14334     14332     14330     14348     14334     14332     14330
     14349     14336     14332     14345     14350     14336     14332     14345
     14372     14359     14357     14355     14373     14359     14357     14355
     14374     14361     14357     14370     14375     14361     14357     14370
     14397     14384     14382     14380     14398     14384     14382     14380
     14399     14386     14382     14395     14400     14386     14382     14395
     14422     14409     14407     14405     14423     14409     14407     14405
     14424     14411     14407     14420     14425     14411     14407     14420
     14447     14434     14432     14430     14448     14434     14432     14430
     14449     14436     14432     14445     14450     14436     14432     14445
     14472     14459     14457     14455     14473     14459     14457     14455
     14474     14461     14457     14470     14475     14461     14457     14470
     14497     14484     14482     14480     14498     14484     14482     14480
     14499     14486     14482     14495     14500     14486     14482     14495
     14522     14509     14507     14505     14523     14509     14507     14505
     14524     14511     14507     14520     14525     14511     14507     14520
     14547     14534     14532     14530     14548     14534     14532     14530
     14549     14536     14532     14545     14550     14536     14532     14545
     14572     14559     14557     14555     14573     14559     14557     14555
     14574     14561     14557     14570     14575     14561     14557     14570
     14597     14584     14582     14580     14598     14584     14582     14580
     14599     14586     14582     14595     14600     14586     14582     14595
     14622     14609     14607     14605     14623     14609     14607     14605
     14624     14611     14607     14620     14625     14611     14607     14620
     14647     14634     14632     14630     14648     14634     14632     14630
     14649     14636     14632     14645     14650     14636     14632     14645
     14672     14659     14657     14655     14673     14659     14657     14655
     14674     14661     14657     14670     14675     14661     14657     14670
     14697     14684     14682     14680     14698     14684     14682     14680
     14699     14686     14682     14695     14700     14686     14682     14695
     14722     14709     14707     14705     14723     14709     14707     14705
     14724     14711     14707     14720     14725     14711     14707     14720
     14747     14734     14732     14730     14748     14734     14732     14730
     14749     14736     14732     14745     14750     14736     14732     14745
     14772     14759     14757     14755     14773     14759     14757     14755
     14774     14761     14757     14770     14775     14761     14757     14770
     14797     14784     14782     14780     14798     14784     14782     14780
     14799     14786     14782     14795     14800     14786     14782     14795
     14822     14809     14807     14805     14823     14809     14807     14805
     14824     14811     14807     14820     14825     14811     14807     14820
     14847     14834     14832     14830     14848     14834     14832     14830
     14849     14836     14832     14845     14850     14836     14832     14845
     14872     14859     14857     14855     14873     14859     14857     14855
     14874     14861     14857     14870     14875     14861     14857     14870
     14897     14884     14882     14880     14898     14884     14882     14880
     14899     14886     14882     14895     14900     14886     14882     14895
     14922     14909     14907     14905     14923     14909     14907     14905
     14924     14911     14907     14920     14925     14911     14907     14920
     14947     14934     14932     14930     14948     14934     14932     14930
     14949     14936     14932     14945     14950     14936     14932     14945
     14972     14959     14957     14955     14973     14959     14957     14955
     14974     14961     14957     14970     14975     14961     14957     14970
     14997     14984     14982     14980     14998     14984     14982     14980
     14999     14986     14982     14995     15000     14986     14982     14995
     15022     15009     15007     15005     15023     15009     15007     15005
     15024     15011     15007     15020     15025     15011     15007     15020
     15047     15034     15032     15030     15048     15034     15032     15030
     15049     15036     15032     15045     15050     15036     15032     15045
     15072     15059     15057     15055     15073     15059     15057     15055
     15074     15061     15057     15070     15075     15061     15057     15070
     15097     15084     15082     15080     15098     15084     15082     15080
     15099     15086     15082     15095     15100     15086     15082     15095
     15122     15109     15107     15105     15123     15109     15107     15105
     15124     15111     15107     15120     15125     15111     15107     15120
     15147     15134     15132     15130     15148     15134     15132     15130
     15149     15136     15132     15145     15150     15136     15132     15145
     15172     15159     15157     15155     15173     15159     15157     15155
     15174     15161     15157     15170     15175     15161     15157     15170
     15197     15184     15182     15180     15198     15184     15182     15180
     15199     15186     15182     15195     15200     15186     15182     15195
     15222     15209     15207     15205     15223     15209     15207     15205
     15224     15211     15207     15220     15225     15211     15207     15220
     15247     15234     15232     15230     15248     15234     15232     15230
     15249     15236     15232     15245     15250     15236     15232     15245
     15272     15259     15257     15255     15273     15259     15257     15255
     15274     15261     15257     15270     15275     15261     15257     15270
     15297     15284     15282     15280     15298     15284     15282     15280
     15299     15286     15282     15295     15300     15286     15282     15295
     15322     15309     15307     15305     15323     15309     15307     15305
     15324     15311     15307     15320     15325     15311     15307     15320
     15347     15334     15332     15330     15348     15334     15332     15330
     15349     15336     15332     15345     15350     15336     15332     15345
     15372     15359     15357     15355     15373     15359     15357     15355
     15374     15361     15357     15370     15375     15361     15357     15370
     15397     15384     15382     15380     15398     15384     15382     15380
     15399     15386     15382     15395     15400     15386     15382     15395
     15422     15409     15407     15405     15423     15409     15407     15405
     15424     15411     15407     15420     15425     15411     15407     15420
     15447     15434     15432     15430     15448     15434     15432     15430
     15449     15436     15432     15445     15450     15436     15432     15445
     15472     15459     15457     15455     15473     15459     15457     15455
     15474     15461     15457     15470     15475     15461     15457     15470
     15497     15484     15482     15480     15498     15484     15482     15480
     15499     15486     15482     15495     15500     15486     15482     15495
     15522     15509     15507     15505     15523     15509     15507     15505
     15524     15511     15507     15520     15525     15511     15507     15520
     15547     15534     15532     15530     15548     15534     15532     15530
     15549     15536     15532     15545     15550     15536     15532     15545
     15572     15559     15557     15555     15573     15559     15557     15555
     15574     15561     15557     15570     15575     15561     15557     15570
     15597     15584     15582     15580     15598     15584     15582     15580
     15599     15586     15582     15595     15600     15586     15582     15595
     15622     15609     15607     15605     15623     15609     15607     15605
     15624     15611     15607     15620     15625     15611     15607     15620
     15647     15634     15632     15630     15648     15634     15632     15630
     15649     15636     15632     15645     15650     15636     15632     15645
     15672     15659     15657     15655     15673     15659     15657     15655
     15674     15661     15657     15670     15675     15661     15657     15670
     15697     15684     15682     15680     15698     15684     15682     15680
     15699     15686     15682     15695     15700     15686     15682     15695
     15722     15709     15707     15705     15723     15709     15707     15705
     15724     15711     15707     15720     15725     15711     15707     15720
     15747     15734     15732     15730     15748     15734     15732     15730
     15749     15736     15732     15745     15750     15736     15732     15745
     15772     15759     15757     15755     15773     15759     15757     15755
     15774     15761     15757     15770     15775     15761     15757     15770
     15797     15784     15782     15780     15798     15784     15782     15780
     15799     15786     15782     15795     15800     15786     15782     15795
     15822     15809     15807     15805     15823     15809     15807     15805
     15824     15811     15807     15820     15825     15811     15807     15820
     15847     15834     15832     15830     15848     15834     15832     15830
     15849     15836     15832     15845     15850     15836     15832     15845
     15872     15859     15857     15855     15873     15859     15857     15855
     15874     15861     15857     15870     15875     15861     15857     15870
     15897     15884     15882     15880     15898     15884     15882     15880
     15899     15886     15882     15895     15900     15886     15882     15895
     15922     15909     15907     15905     15923     15909     15907     15905
     15924     15911     15907     15920     15925     15911     15907     15920
     15947     15934     15932     15930     15948     15934     15932     15930
     15949     15936     15932     15945     15950     15936     15932     15945
     15972     15959     15957     15955     15973     15959     15957     15955
     15974     15961     15957     15970     15975     15961     15957     15970
     15997     15984     15982     15980     15998     15984     15982     15980
     15999     15986     15982     15995     16000     15986     15982     15995
     16022     16009     16007     16005     16023     16009     16007     16005
     16024     16011     16007     16020     16025     16011     16007     16020
     16047     16034     16032     16030     16048     16034     16032     16030
     16049     16036     16032     16045     16050     16036     16032     16045
     16072     16059     16057     16055     16073     16059     16057     16055
     16074     16061     16057     16070     16075     16061     16057     16070
     16097     16084     16082     16080     16098     16084     16082     16080
     16099     16086     16082     16095     16100     16086     16082     16095
     16122     16109     16107     16105     16123     16109     16107     16105
     16124     16111     16107     16120     16125     16111     16107     16120
     16147     16134     16132     16130     16148     16134     16132     16130
     16149     16136     16132     16145     16150     16136     16132     16145
     16172     16159     16157     16155     16173     16159     16157     16155
     16174     16161     16157     16170     16175     16161     16157     16170
     16197     16184     16182     16180     16198     16184     16182     16180
     16199     16186     16182     16195     16200     16186     16182     16195
     16222     16209     16207     16205     16223     16209     16207     16205
     16224     16211     16207     16220     16225     16211     16207     16220
     16247     16234     16232     16230     16248     16234     16232     16230
     16249     16236     16232     16245     16250     16236     16232     16245
     16272     16259     16257     16255     16273     16259     16257     16255
     16274     16261     16257     16270     16275     16261     16257     16270
     16297     16284     16282     16280     16298     16284     16282     16280
     16299     16286     16282     16295     16300     16286     16282     16295
     16322     16309     16307     16305     16323     16309     16307     16305
     16324     16311     16307     16320     16325     16311     16307     16320
     16347     16334     16332     16330     16348     16334     16332     16330
     16349     16336     16332     16345     16350     16336     16332     16345
     16372     16359     16357     16355     16373     16359     16357     16355
     16374     16361     16357     16370     16375     16361     16357     16370
     16397     16384     16382     16380     16398     16384     16382     16380
     16399     16386     16382     16395     16400     16386     16382     16395
     16422     16409     16407     16405     16423     16409     16407     16405
     16424     16411     16407     16420     16425     16411     16407     16420
     16447     16434     16432     16430     16448     16434     16432     16430
     16449     16436     16432     16445     16450     16436     16432     16445
     16472     16459     16457     16455     16473     16459     16457     16455
     16474     16461     16457     16470     16475     16461     16457     16470
     16497     16484     16482     16480     16498     16484     16482     16480
     16499     16486     16482     16495     16500     16486     16482     16495
     16522     16509     16507     16505     16523     16509     16507     16505
     16524     16511     16507     16520     16525     16511     16507     16520
     16547     16534     16532     16530     16548     16534     16532     16530
     16549     16536     16532     16545     16550     16536     16532     16545
     16572     16559     16557     16555     16573     16559     16557     16555
     16574     16561     16557     16570     16575     16561     16557     16570
     16597     16584     16582     16580     16598     16584     16582     16580
     16599     16586     16582     16595     16600     16586     16582     16595
     16622     16609     16607     16605     16623     16609     16607     16605
     16624     16611     16607     16620     16625     16611     16607     16620
     16647     16634     16632     16630     16648     16634     16632     16630
     16649     16636     16632     16645     16650     16636     16632     16645
     16672     16659     16657     16655     16673     16659     16657     16655
     16674     16661     16657     16670     16675     16661     16657     16670
     16697     16684     16682     16680     16698     16684     16682     16680
     16699     16686     16682     16695     16700     16686     16682     16695
     16722     16709     16707     16705     16723     16709     16707     16705
     16724     16711     16707     16720     16725     16711     16707     16720
     16747     16734     16732     16730     16748     16734     16732     16730
     16749     16736     16732     16745     16750     16736     16732     16745
     16772     16759     16757     16755     16773     16759     16757     16755
     16774     16761     16757     16770     16775     16761     16757     16770
     16797     16784     16782     16780     16798     16784     16782     16780
     16799     16786     16782     16795     16800     16786     16782     16795
     16822     16809     16807     16805     16823     16809     16807     16805
     16824     16811     16807     16820     16825     16811     16807     16820
     16847     16834     16832     16830     16848     16834     16832     16830
     16849     16836     16832     16845     16850     16836     16832     16845
     16872     16859     16857     16855     16873     16859     16857     16855
     16874     16861     16857     16870     16875     16861     16857     16870
     16897     16884     16882     16880     16898     16884     16882     16880
     16899     16886     16882     16895     16900     16886     16882     16895
     16922     16909     16907     16905     16923     16909     16907     16905
     16924     16911     16907     16920     16925     16911     16907     16920
     16947     16934     16932     16930     16948     16934     16932     16930
     16949     16936     16932     16945     16950     16936     16932     16945
     16972     16959     16957     16955     16973     16959     16957     16955
     16974     16961     16957     16970     16975     16961     16957     16970
     16997     16984     16982     16980     16998     16984     16982     16980
     16999     16986     16982     16995     17000     16986     16982     16995
     17022     17009     17007     17005     17023     17009     17007     17005
     17024     17011     17007     17020     17025     17011     17007     17020
     17047     17034     17032     17030     17048     17034     17032     17030
     17049     17036     17032     17045     17050     17036     17032     17045
     17072     17059     17057     17055     17073     17059     17057     17055
     17074     17061     17057     17070     17075     17061     17057     17070
     17097     17084     17082     17080     17098     17084     17082     17080
     17099     17086     17082     17095     17100     17086     17082     17095
     17122     17109     17107     17105     17123     17109     17107     17105
     17124     17111     17107     17120     17125     17111     17107     17120
     17147     17134     17132     17130     17148     17134     17132     17130
     17149     17136     17132     17145     17150     17136     17132     17145
     17172     17159     17157     17155     17173     17159     17157     17155
     17174     17161     17157     17170     17175     17161     17157     17170
     17197     17184     17182     17180     17198     17184     17182     17180
     17199     17186     17182     17195     17200     17186     17182     17195
     17222     17209     17207     17205     17223     17209     17207     17205
     17224     17211     17207     17220     17225     17211     17207     17220
     17247     17234     17232     17230     17248     17234     17232     17230
     17249     17236     17232     17245     17250     17236     17232     17245
     17272     17259     17257     17255     17273     17259     17257     17255
     17274     17261     17257     17270     17275     17261     17257     17270
     17297     17284     17282     17280     17298     17284     17282     17280
     17299     17286     17282     17295     17300     17286     17282     17295
     17322     17309     17307     17305     17323     17309     17307     17305
     17324     17311     17307     17320     17325     17311     17307     17320
     17347     17334     17332     17330     17348     17334     17332     17330
     17349     17336     17332     17345     17350     17336     17332     17345
     17372     17359     17357     17355     17373     17359     17357     17355
     17374     17361     17357     17370     17375     17361     17357     17370
     17397     17384     17382     17380     17398     17384     17382     17380
     17399     17386     17382     17395     17400     17386     17382     17395
     17422     17409     17407     17405     17423     17409     17407     17405
     17424     17411     17407     17420     17425     17411     17407     17420
     17447     17434     17432     17430     17448     17434     17432     17430
     17449     17436     17432     17445     17450     17436     17432     17445
     17472     17459     17457     17455     17473     17459     17457     17455
     17474     17461     17457     17470     17475     17461     17457     17470
     17497     17484     17482     17480     17498     17484     17482     17480
     17499     17486     17482     17495     17500     17486     17482     17495
     17522     17509     17507     17505     17523     17509     17507     17505
     17524     17511     17507     17520     17525     17511     17507     17520
     17547     17534     17532     17530     17548     17534     17532     17530
     17549     17536     17532     17545     17550     17536     17532     17545
     17572     17559     17557     17555     17573     17559     17557     17555
     17574     17561     17557     17570     17575     17561     17557     17570
     17597     17584     17582     17580     17598     17584     17582     17580
     17599     17586     17582     17595     17600     17586     17582     17595
     17622     17609     17607     17605     17623     17609     17607     17605
     17624     17611     17607     17620     17625     17611     17607     17620
     17647     17634     17632     17630     17648     17634     17632     17630
     17649     17636     17632     17645     17650     17636     17632     17645
     17672     17659     17657     17655     17673     17659     17657     17655
     17674     17661     17657     17670     17675     17661     17657     17670
     17697     17684     17682     17680     17698     17684     17682     17680
     17699     17686     17682     17695     17700     17686     17682     17695
     17722     17709     17707     17705     17723     17709     17707     17705
     17724     17711     17707     17720     17725     17711     17707     17720
     17747     17734     17732     17730     17748     17734     17732     17730
     17749     17736     17732     17745     17750     17736     17732     17745
     17772     17759     17757     17755     17773     17759     17757     17755
     17774     17761     17757     17770     17775     17761     17757     17770
     17797     17784     17782     17780     17798     17784     17782     17780
     17799     17786     17782     17795     17800     17786     17782     17795
     17822     17809     17807     17805     17823     17809     17807     17805
     17824     17811     17807     17820     17825     17811     17807     17820
     17847     17834     17832     17830     17848     17834     17832     17830
     17849     17836     17832     17845     17850     17836     17832     17845
     17872     17859     17857     17855     17873     17859     17857     17855
     17874     17861     17857     17870     17875     17861     17857     17870
     17897     17884     17882     17880     17898     17884     17882     17880
     17899     17886     17882     17895     17900     17886     17882     17895
     17922     17909     17907     17905     17923     17909     17907     17905
     17924     17911     17907     17920     17925     17911     17907     17920
     17947     17934     17932     17930     17948     17934     17932     17930
     17949     17936     17932     17945     17950     17936     17932     17945
     17972     17959     17957     17955     17973     17959     17957     17955
     17974     17961     17957     17970     17975     17961     17957     17970
     17997     17984     17982     17980     17998     17984     17982     17980
     17999     17986     17982     17995     18000     17986     17982     17995
     18022     18009     18007     18005     18023     18009     18007     18005
     18024     18011     18007     18020     18025     18011     18007     18020
     18047     18034     18032     18030     18048     18034     18032     18030
     18049     18036     18032     18045     18050     18036     18032     18045
     18072     18059     18057     18055     18073     18059     18057     18055
     18074     18061     18057     18070     18075     18061     18057     18070
     18097     18084     18082     18080     18098     18084     18082     18080
     18099     18086     18082     18095     18100     18086     18082     18095
     18122     18109     18107     18105     18123     18109     18107     18105
     18124     18111     18107     18120     18125     18111     18107     18120
     18147     18134     18132     18130     18148     18134     18132     18130
     18149     18136     18132     18145     18150     18136     18132     18145
     18172     18159     18157     18155     18173     18159     18157     18155
     18174     18161     18157     18170     18175     18161     18157     18170
     18197     18184     18182     18180     18198     18184     18182     18180
     18199     18186     18182     18195     18200     18186     18182     18195
     18222     18209     18207     18205     18223     18209     18207     18205
     18224     18211     18207     18220     18225     18211     18207     18220
     18247     18234     18232     18230     18248     18234     18232     18230
     18249     18236     18232     18245     18250     18236     18232     18245
     18272     18259     18257     18255     18273     18259     18257     18255
     18274     18261     18257     18270     18275     18261     18257     18270
     18297     18284     18282     18280     18298     18284     18282     18280
     18299     18286     18282     18295     18300     18286     18282     18295
     18322     18309     18307     18305     18323     18309     18307     18305
     18324     18311     18307     18320     18325     18311     18307     18320
     18347     18334     18332     18330     18348     18334     18332     18330
     18349     18336     18332     18345     18350     18336     18332     18345
     18372     18359     18357     18355     18373     18359     18357     18355
     18374     18361     18357     18370     18375     18361     18357     18370
     18397     18384     18382     18380     18398     18384     18382     18380
     18399     18386     18382     18395     18400     18386     18382     18395
     18422     18409     18407     18405     18423     18409     18407     18405
     18424     18411     18407     18420     18425     18411     18407     18420
     18447     18434     18432     18430     18448     18434     18432     18430
     18449     18436     18432     18445     18450     18436     18432     18445
     18472     18459     18457     18455     18473     18459     18457     18455
     18474     18461     18457     18470     18475     18461     18457     18470
     18497     18484     18482     18480     18498     18484     18482     18480
     18499     18486     18482     18495     18500     18486     18482     18495
     18522     18509     18507     18505     18523     18509     18507     18505
     18524     18511     18507     18520     18525     18511     18507     18520
     18547     18534     18532     18530     18548     18534     18532     18530
     18549     18536     18532     18545     18550     18536     18532     18545
     18572     18559     18557     18555     18573     18559     18557     18555
     18574     18561     18557     18570     18575     18561     18557     18570
     18597     18584     18582     18580     18598     18584     18582     18580
     18599     18586     18582     18595     18600     18586     18582     18595
     18622     18609     18607     18605     18623     18609     18607     18605
     18624     18611     18607     18620     18625     18611     18607     18620
     18647     18634     18632     18630     18648     18634     18632     18630
     18649     18636     18632     18645     18650     18636     18632     18645
     18672     18659     18657     18655     18673     18659     18657     18655
     18674     18661     18657     18670     18675     18661     18657     18670
     18697     18684     18682     18680     18698     18684     18682     18680
     18699     18686     18682     18695     18700     18686     18682     18695
     18722     18709     18707     18705     18723     18709     18707     18705
     18724     18711     18707     18720     18725     18711     18707     18720
     18747     18734     18732     18730     18748     18734     18732     18730
     18749     18736     18732     18745     18750     18736     18732     18745
     18772     18759     18757     18755     18773     18759     18757     18755
     18774     18761     18757     18770     18775     18761     18757     18770
     18797     18784     18782     18780     18798     18784     18782     18780
     18799     18786     18782     18795     18800     18786     18782     18795
     18822     18809     18807     18805     18823     18809     18807     18805
     18824     18811     18807     18820     18825     18811     18807     18820
     18847     18834     18832     18830     18848     18834     18832     18830
     18849     18836     18832     18845     18850     18836     18832     18845
     18872     18859     18857     18855     18873     18859     18857     18855
     18874     18861     18857     18870     18875     18861     18857     18870
     18897     18884     18882     18880     18898     18884     18882     18880
     18899     18886     18882     18895     18900     18886     18882     18895
     18922     18909     18907     18905     18923     18909     18907     18905
     18924     18911     18907     18920     18925     18911     18907     18920
     18947     18934     18932     18930     18948     18934     18932     18930
     18949     18936     18932     18945     18950     18936     18932     18945
     18972     18959     18957     18955     18973     18959     18957     18955
     18974     18961     18957     18970     18975     18961     18957     18970
     18997     18984     18982     18980     18998     18984     18982     18980
     18999     18986     18982     18995     19000     18986     18982     18995
     19022     19009     19007     19005     19023     19009     19007     19005
     19024     19011     19007     19020     19025     19011     19007     19020
     19047     19034     19032     19030     19048     19034     19032     19030
     19049     19036     19032     19045     19050     19036     19032     19045
     19072     19059     19057     19055     19073     19059     19057     19055
     19074     19061     19057     19070     19075     19061     19057     19070
     19097     19084     19082     19080     19098     19084     19082     19080
     19099     19086     19082     19095     19100     19086     19082     19095
     19122     19109     19107     19105     19123     19109     19107     19105
     19124     19111     19107     19120     19125     19111     19107     19120
     19147     19134     19132     19130     19148     19134     19132     19130
     19149     19136     19132     19145     19150     19136     19132     19145
     19172     19159     19157     19155     19173     19159     19157     19155
     19174     19161     19157     19170     19175     19161     19157     19170
     19197     19184     19182     19180     19198     19184     19182     19180
     19199     19186     19182     19195     19200     19186     19182     19195
     19222     19209     19207     19205     19223     19209     19207     19205
     19224     19211     19207     19220     19225     19211     19207     19220
     19247     19234     19232     19230     19248     19234     19232     19230
     19249     19236     19232     19245     19250     19236     19232     19245
     19272     19259     19257     19255     19273     19259     19257     19255
     19274     19261     19257     19270     19275     19261     19257     19270
     19297     19284     19282     19280     19298     19284     19282     19280
     19299     19286     19282     19295     19300     19286     19282     19295
     19322     19309     19307     19305     19323     19309     19307     19305
     19324     19311     19307     19320     19325     19311     19307     19320
     19347     19334     19332     19330     19348     19334     19332     19330
     19349     19336     19332     19345     19350     19336     19332     19345
     19372     19359     19357     19355     19373     19359     19357     19355
     19374     19361     19357     19370     19375     19361     19357     19370
     19397     19384     19382     19380     19398     19384     19382     19380
     19399     19386     19382     19395     19400     19386     19382     19395
     19422     19409     19407     19405     19423     19409     19407     19405
     19424     19411     19407     19420     19425     19411     19407     19420
     19447     19434     19432     19430     19448     19434     19432     19430
     19449     19436     19432     19445     19450     19436     19432     19445
     19472     19459     19457     19455     19473     19459     19457     19455
     19474     19461     19457     19470     19475     19461     19457     19470
     19497     19484     19482     19480     19498     19484     19482     19480
     19499     19486     19482     19495     19500     19486     19482     19495
     19522     19509     19507     19505     19523     19509     19507     19505
     19524     19511     19507     19520     19525     19511     19507     19520
     19547     19534     19532     19530     19548     19534     19532     19530
     19549     19536     19532     19545     19550     19536     19532     19545
     19572     19559     19557     19555     19573     19559     19557     19555
     19574     19561     19557     19570     19575     19561     19557     19570
     19597     19584     19582     19580     19598     19584     19582     19580
     19599     19586     19582     19595     19600     19586     19582     19595
     19622     19609     19607     19605     19623     19609     19607     19605
     19624     19611     19607     19620     19625     19611     19607     19620
     19647     19634     19632     19630     19648     19634     19632     19630
     19649     19636     19632     19645     19650     19636     19632     19645
     19672     19659     19657     19655     19673     19659     19657     19655
     19674     19661     19657     19670     19675     19661     19657     19670
     19697     19684     19682     19680     19698     19684     19682     19680
     19699     19686     19682     19695     19700     19686     19682     19695
     19722     19709     19707     19705     19723     19709     19707     19705
     19724     19711     19707     19720     19725     19711     19707     19720
     19747     19734     19732     19730     19748     19734     19732     19730
     19749     19736     19732     19745     19750     19736     19732     19745
     19772     19759     19757     19755     19773     19759     19757     19755
     19774     19761     19757     19770     19775     19761     19757     19770
     19797     19784     19782     19780     19798     19784     19782     19780
     19799     19786     19782     19795     19800     19786     19782     19795
     19822     19809     19807     19805     19823     19809     19807     19805
     19824     19811     19807     19820     19825     19811     19807     19820
     19847     19834     19832     19830     19848     19834     19832     19830
     19849     19836     19832     19845     19850     19836     19832     19845
     19872     19859     19857     19855     19873     19859     19857     19855
     19874     19861     19857     19870     19875     19861     19857     19870
     19897     19884     19882     19880     19898     19884     19882     19880
     19899     19886     19882     19895     19900     19886     19882     19895
     19922     19909     19907     19905     19923     19909     19907     19905
     19924     19911     19907     19920     19925     19911     19907     19920
     19947     19934     19932     19930     19948     19934     19932     19930
     19949     19936     19932     19945     19950     19936     19932     19945
     19972     19959     19957     19955     19973     19959     19957     19955
     19974     19961     19957     19970     19975     19961     19957     19970
     19997     19984     19982     19980     19998     19984     19982     19980
     19999     19986     19982     19995     20000     19986     19982     19995
     20022     20009     20007     20005     20023     20009     20007     20005
     20024     20011     20007     20020     20025     20011     20007     20020
     20047     20034     20032     20030     20048     20034     20032     20030
     20049     20036     20032     20045     20050     20036     20032     20045
     20072     20059     20057     20055     20073     20059     20057     20055
     20074     20061     20057     20070     20075     20061     20057     20070
     20097     20084     20082     20080     20098     20084     20082     20080
     20099     20086     20082     20095     20100     20086     20082     20095
     20122     20109     20107     20105     20123     20109     20107     20105
     20124     20111     20107     20120     20125     20111     20107     20120
     20147     20134     20132     20130     20148     20134     20132     20130
     20149     20136     20132     20145     20150     20136     20132     20145
     20172     20159     20157     20155     20173     20159     20157     20155
     20174     20161     20157     20170     20175     20161     20157     20170
     20197     20184     20182     20180     20198     20184     20182     20180
     20199     20186     20182     20195     20200     20186     20182     20195
     20222     20209     20207     20205     20223     20209     20207     20205
     20224     20211     20207     20220     20225     20211     20207     20220
     20247     20234     20232     20230     20248     20234     20232     20230
     20249     20236     20232     20245     20250     20236     20232     20245
     20272     20259     20257     20255     20273     20259     20257     20255
     20274     20261     20257     20270     20275     20261     20257     20270
     20297     20284     20282     20280     20298     20284     20282     20280
     20299     20286     20282     20295     20300     20286     20282     20295
     20322     20309     20307     20305     20323     20309     20307     20305
     20324     20311     20307     20320     20325     20311     20307     20320
     20347     20334     20332     20330     20348     20334     20332     20330
     20349     20336     20332     20345     20350     20336     20332     20345
     20372     20359     20357     20355     20373     20359     20357     20355
     20374     20361     20357     20370     20375     20361     20357     20370
     20397     20384     20382     20380     20398     20384     20382     20380
     20399     20386     20382     20395     20400     20386     20382     20395
     20422     20409     20407     20405     20423     20409     20407     20405
     20424     20411     20407     20420     20425     20411     20407     20420
     20447     20434     20432     20430     20448     20434     20432     20430
     20449     20436     20432     20445     20450     20436     20432     20445
     20472     20459     20457     20455     20473     20459     20457     20455
     20474     20461     20457     20470     20475     20461     20457     20470
     20497     20484     20482     20480     20498     20484     20482     20480
     20499     20486     20482     20495     20500     20486     20482     20495
     20522     20509     20507     20505     20523     20509     20507     20505
     20524     20511     20507     20520     20525     20511     20507     20520
     20547     20534     20532     20530     20548     20534     20532     20530
     20549     20536     20532     20545     20550     20536     20532     20545
     20572     20559     20557     20555     20573     20559     20557     20555
     20574     20561     20557     20570     20575     20561     20557     20570
     20597     20584     20582     20580     20598     20584     20582     20580
     20599     20586     20582     20595     20600     20586     20582     20595
     20622     20609     20607     20605     20623     20609     20607     20605
     20624     20611     20607     20620     20625     20611     20607     20620
     20647     20634     20632     20630     20648     20634     20632     20630
     20649     20636     20632     20645     20650     20636     20632     20645
     20672     20659     20657     20655     20673     20659     20657     20655
     20674     20661     20657     20670     20675     20661     20657     20670
     20697     20684     20682     20680     20698     20684     20682     20680
     20699     20686     20682     20695     20700     20686     20682     20695
     20722     20709     20707     20705     20723     20709     20707     20705
     20724     20711     20707     20720     20725     20711     20707     20720
     20747     20734     20732     20730     20748     20734     20732     20730
     20749     20736     20732     20745     20750     20736     20732     20745
     20772     20759     20757     20755     20773     20759     20757     20755
     20774     20761     20757     20770     20775     20761     20757     20770
     20797     20784     20782     20780     20798     20784     20782     20780
     20799     20786     20782     20795     20800     20786     20782     20795
     20822     20809     20807     20805     20823     20809     20807     20805
     20824     20811     20807     20820     20825     20811     20807     20820
     20847     20834     20832     20830     20848     20834     20832     20830
     20849     20836     20832     20845     20850     20836     20832     20845
     20872     20859     20857     20855     20873     20859     20857     20855
     20874     20861     20857     20870     20875     20861     20857     20870
     20897     20884     20882     20880     20898     20884     20882     20880
     20899     20886     20882     20895     20900     20886     20882     20895
     20922     20909     20907     20905     20923     20909     20907     20905
     20924     20911     20907     20920     20925     20911     20907     20920
     20947     20934     20932     20930     20948     20934     20932     20930
     20949     20936     20932     20945     20950     20936     20932     20945
     20972     20959     20957     20955     20973     20959     20957     20955
     20974     20961     20957     20970     20975     20961     20957     20970
     20997     20984     20982     20980     20998     20984     20982     20980
     20999     20986     20982     20995     21000     20986     20982     20995
     21022     21009     21007     21005     21023     21009     21007     21005
     21024     21011     21007     21020     21025     21011     21007     21020
     21047     21034     21032     21030     21048     21034     21032     21030
     21049     21036     21032     21045     21050     21036     21032     21045
     21072     21059     21057     21055     21073     21059     21057     21055
     21074     21061     21057     21070     21075     21061     21057     21070
     21097     21084     21082     21080     21098     21084     21082     21080
     21099     21086     21082     21095     21100     21086     21082     21095
     21122     21109     21107     21105     21123     21109     21107     21105
     21124     21111     21107     21120     21125     21111     21107     21120
     21147     21134     21132     21130     21148     21134     21132     21130
     21149     21136     21132     21145     21150     21136     21132     21145
     21172     21159     21157     21155     21173     21159     21157     21155
     21174     21161     21157     21170     21175     21161     21157     21170
     21197     21184     21182     21180     21198     21184     21182     21180
     21199     21186     21182     21195     21200     21186     21182     21195
     21222     21209     21207     21205     21223     21209     21207     21205
     21224     21211     21207     21220     21225     21211     21207     21220
     21247     21234     21232     21230     21248     21234     21232     21230
     21249     21236     21232     21245     21250     21236     21232     21245
     21272     21259     21257     21255     21273     21259     21257     21255
     21274     21261     21257     21270     21275     21261     21257     21270
     21297     21284     21282     21280     21298     21284     21282     21280
     21299     21286     21282     21295     21300     21286     21282     21295
     21322     21309     21307     21305     21323     21309     21307     21305
     21324     21311     21307     21320     21325     21311     21307     21320
     21347     21334     21332     21330     21348     21334     21332     21330
     21349     21336     21332     21345     21350     21336     21332     21345
     21372     21359     21357     21355     21373     21359     21357     21355
     21374     21361     21357     21370     21375     21361     21357     21370
     21397     21384     21382     21380     21398     21384     21382     21380
     21399     21386     21382     21395     21400     21386     21382     21395
     21422     21409     21407     21405     21423     21409     21407     21405
     21424     21411     21407     21420     21425     21411     21407     21420
     21447     21434     21432     21430     21448     21434     21432     21430
     21449     21436     21432     21445     21450     21436     21432     21445
     21472     21459     21457     21455     21473     21459     21457     21455
     21474     21461     21457     21470     21475     21461     21457     21470
     21497     21484     21482     21480     21498     21484     21482     21480
     21499     21486     21482     21495     21500     21486     21482     21495
     21522     21509     21507     21505     21523     21509     21507     21505
     21524     21511     21507     21520     21525     21511     21507     21520
     21547     21534     21532     21530     21548     21534     21532     21530
     21549     21536     21532     21545     21550     21536     21532     21545
     21572     21559     21557     21555     21573     21559     21557     21555
     21574     21561     21557     21570     21575     21561     21557     21570
     21597     21584     21582     21580     21598     21584     21582     21580
     21599     21586     21582     21595     21600     21586     21582     21595
     21622     21609     21607     21605     21623     21609     21607     21605
     21624     21611     21607     21620     21625     21611     21607     21620
     21647     21634     21632     21630     21648     21634     21632     21630
     21649     21636     21632     21645     21650     21636     21632     21645
     21672     21659     21657     21655     21673     21659     21657     21655
     21674     21661     21657     21670     21675     21661     21657     21670
     21697     21684     21682     21680     21698     21684     21682     21680
     21699     21686     21682     21695     21700     21686     21682     21695
     21722     21709     21707     21705     21723     21709     21707     21705
     21724     21711     21707     21720     21725     21711     21707     21720
     21747     21734     21732     21730     21748     21734     21732     21730
     21749     21736     21732     21745     21750     21736     21732     21745
     21772     21759     21757     21755     21773     21759     21757     21755
     21774     21761     21757     21770     21775     21761     21757     21770
     21797     21784     21782     21780     21798     21784     21782     21780
     21799     21786     21782     21795     21800     21786     21782     21795
     21822     21809     21807     21805     21823     21809     21807     21805
     21824     21811     21807     21820     21825     21811     21807     21820
     21847     21834     21832     21830     21848     21834     21832     21830
     21849     21836     21832     21845     21850     21836     21832     21845
     21872     21859     21857     21855     21873     21859     21857     21855
     21874     21861     21857     21870     21875     21861     21857     21870
     21897     21884     21882     21880     21898     21884     21882     21880
     21899     21886     21882     21895     21900     21886     21882     21895
     21922     21909     21907     21905     21923     21909     21907     21905
     21924     21911     21907     21920     21925     21911     21907     21920
     21947     21934     21932     21930     21948     21934     21932     21930
     21949     21936     21932     21945     21950     21936     21932     21945
     21972     21959     21957     21955     21973     21959     21957     21955
     21974     21961     21957     21970     21975     21961     21957     21970
     21997     21984     21982     21980     21998     21984     21982     21980
     21999     21986     21982     21995     22000     21986     21982     21995
     22022     22009     22007     22005     22023     22009     22007     22005
     22024     22011     22007     22020     22025     22011     22007     22020
     22047     22034     22032     22030     22048     22034     22032     22030
     22049     22036     22032     22045     22050     22036     22032     22045
     22072     22059     22057     22055     22073     22059     22057     22055
     22074     22061     22057     22070     22075     22061     22057     22070
     22097     22084     22082     22080     22098     22084     22082     22080
     22099     22086     22082     22095     22100     22086     22082     22095
     22122     22109     22107     22105     22123     22109     22107     22105
     22124     22111     22107     22120     22125     22111     22107     22120
     22147     22134     22132     22130     22148     22134     22132     22130
     22149     22136     22132     22145     22150     22136     22132     22145
     22172     22159     22157     22155     22173     22159     22157     22155
     22174     22161     22157     22170     22175     22161     22157     22170
     22197     22184     22182     22180     22198     22184     22182     22180
     22199     22186     22182     22195     22200     22186     22182     22195
     22222     22209     22207     22205     22223     22209     22207     22205
     22224     22211     22207     22220     22225     22211     22207     22220
     22247     22234     22232     22230     22248     22234     22232     22230
     22249     22236     22232     22245     22250     22236     22232     22245
     22272     22259     22257     22255     22273     22259     22257     22255
     22274     22261     22257     22270     22275     22261     22257     22270
     22297     22284     22282     22280     22298     22284     22282     22280
     22299     22286     22282     22295     22300     22286     22282     22295
     22322     22309     22307     22305     22323     22309     22307     22305
     22324     22311     22307     22320     22325     22311     22307     22320
     22347     22334     22332     22330     22348     22334     22332     22330
     22349     22336     22332     22345     22350     22336     22332     22345
     22372     22359     22357     22355     22373     22359     22357     22355
     22374     22361     22357     22370     22375     22361     22357     22370
     22397     22384     22382     22380     22398     22384     22382     22380
     22399     22386     22382     22395     22400     22386     22382     22395
     22422     22409     22407     22405     22423     22409     22407     22405
     22424     22411     22407     22420     22425     22411     22407     22420
     22447     22434     22432     22430     22448     22434     22432     22430
     22449     22436     22432     22445     22450     22436     22432     22445
     22472     22459     22457     22455     22473     22459     22457     22455
     22474     22461     22457     22470     22475     22461     22457     22470
     22497     22484     22482     22480     22498     22484     22482     22480
     22499     22486     22482     22495     22500     22486     22482     22495

         0 !NUMANISO

         0 !NCRTERM: cross-terms

