*~~~~~~~~~~~~~~~~~~~~~~~~~~~~~~~~~~~~~~~~~~~~~~~~~~~~~~~~~~~~~~~~~~~~~~~
*~ MINIMIZATION OF PACKMOL STRUCTURE
*~~~~~~~~~~~~~~~~~~~~~~~~~~~~~~~~~~~~~~~~~~~~~~~~~~~~~~~~~~~~~~~~~~~~~~~
*  DATE:    11/20/24     17: 0:21      CREATED BY USER: student7
*
     22500  EXT
         1         1  IM1H      C1             20.6345671104        8.8379958147        3.8236132941  IM1H      1               0.0000000000
         2         1  IM1H      DC1            20.6062907971        8.8280155727        3.8300525188  IM1H      1               0.0000000000
         3         1  IM1H      H1             20.8723329216        8.4198365201        4.8250778333  IM1H      1               0.0000000000
         4         1  IM1H      H2             20.8890771970        9.9189861976        3.7919051063  IM1H      1               0.0000000000
         5         1  IM1H      H3             21.2126039192        8.2985956378        3.0430738029  IM1H      1               0.0000000000
         6         1  IM1H      N1             19.1948884915        8.6754027020        3.5718504636  IM1H      1               0.0000000000
         7         1  IM1H      DN1            19.1678794398        8.6714322134        3.5729714725  IM1H      1               0.0000000000
         8         1  IM1H      C2             18.2007198482        9.1478247874        4.3983366056  IM1H      1               0.0000000000
         9         1  IM1H      DC2            18.2074289550        9.1357583275        4.3797814995  IM1H      1               0.0000000000
        10         1  IM1H      H4             18.3916697133        9.7082702011        5.3051596795  IM1H      1               0.0000000000
        11         1  IM1H      C3             17.0113354088        8.7715682524        3.8363208525  IM1H      1               0.0000000000
        12         1  IM1H      DC3            17.0070128778        8.7826401059        3.8320306918  IM1H      1               0.0000000000
        13         1  IM1H      H5             16.0053037647        8.9454075729        4.1976644863  IM1H      1               0.0000000000
        14         1  IM1H      C4             18.6646501299        8.0283760068        2.5216416170  IM1H      1               0.0000000000
        15         1  IM1H      DC4            18.6681827739        8.0417595067        2.5575674283  IM1H      1               0.0000000000
        16         1  IM1H      H6             19.2168647244        7.5728742415        1.6996457633  IM1H      1               0.0000000000
        17         1  IM1H      N2             17.3258500350        8.0781495375        2.6805814459  IM1H      1               0.0000000000
        18         1  IM1H      DN2            17.3178801270        8.0857311666        2.6849775871  IM1H      1               0.0000000000
        19         1  IM1H      H7             16.6678271941        7.6337247292        2.0727224732  IM1H      1               0.0000000000
        20         1  IM1H      LPN21          17.1298538653        7.9549468902        2.4897762857  IM1H      1               0.0000000000
        21         2  IM1H      C1             28.5297799344       -9.4656003279      -16.1429220716  IM1H      2               0.0000000000
        22         2  IM1H      DC1            28.5394604149       -9.5075585667      -16.1034523018  IM1H      2               0.0000000000
        23         2  IM1H      H1             29.1629418239       -9.1973607288      -15.2702969857  IM1H      2               0.0000000000
        24         2  IM1H      H2             28.3991496744       -8.5727913339      -16.7911109607  IM1H      2               0.0000000000
        25         2  IM1H      H3             28.9860167091      -10.2857320390      -16.7375252855  IM1H      2               0.0000000000
        26         2  IM1H      N1             27.2043960520       -9.8751052315      -15.6593497724  IM1H      2               0.0000000000
        27         2  IM1H      DN1            27.1923711228       -9.9143718879      -15.6296254778  IM1H      2               0.0000000000
        28         2  IM1H      C2             26.4611081177       -9.1629134763      -14.7491191100  IM1H      2               0.0000000000
        29         2  IM1H      DC2            26.4707726220       -9.2293574253      -14.7094757105  IM1H      2               0.0000000000
        30         2  IM1H      H4             26.7352652576       -8.1597936055      -14.4466668204  IM1H      2               0.0000000000
        31         2  IM1H      C3             25.3081466024       -9.8643482003      -14.5411382295  IM1H      2               0.0000000000
        32         2  IM1H      DC3            25.2952090658       -9.8905837365      -14.5025347523  IM1H      2               0.0000000000
        33         2  IM1H      H5             24.4246522179       -9.5605078452      -13.9934086329  IM1H      2               0.0000000000
        34         2  IM1H      C4             26.5629923262      -11.0007298257      -16.0000091773  IM1H      2               0.0000000000
        35         2  IM1H      DC4            26.5814524868      -11.0171981443      -15.9642149580  IM1H      2               0.0000000000
        36         2  IM1H      H6             26.8955769385      -11.7006894543      -16.7665233611  IM1H      2               0.0000000000
        37         2  IM1H      N2             25.3965860545      -10.9997887787      -15.3224039037  IM1H      2               0.0000000000
        38         2  IM1H      DN2            25.3934574109      -11.0223612618      -15.2994992995  IM1H      2               0.0000000000
        39         2  IM1H      H7             24.6065346049      -11.5653485118      -15.5589644567  IM1H      2               0.0000000000
        40         2  IM1H      LPN21          25.1904239953      -11.2168203427      -15.3422660682  IM1H      2               0.0000000000
        41         3  IM1H      C1             10.1317973816      -18.8521141746       -5.2752874930  IM1H      3               0.0000000000
        42         3  IM1H      DC1            10.1057619302      -18.8232734007       -5.2516244796  IM1H      3               0.0000000000
        43         3  IM1H      H1              9.9467579648      -19.8946706163       -5.6116763765  IM1H      3               0.0000000000
        44         3  IM1H      H2             11.2206685219      -18.7136402247       -5.1035155361  IM1H      3               0.0000000000
        45         3  IM1H      H3              9.7717934567      -18.1566154029       -6.0633227932  IM1H      3               0.0000000000
        46         3  IM1H      N1              9.4090526865      -18.6040599516       -4.0231713082  IM1H      3               0.0000000000
        47         3  IM1H      DN1             9.3902004625      -18.5897166014       -3.9957228327  IM1H      3               0.0000000000
        48         3  IM1H      C2              9.7081389464      -19.1767695792       -2.8125485376  IM1H      3               0.0000000000
        49         3  IM1H      DC2             9.6915115493      -19.1394849139       -2.8198524397  IM1H      3               0.0000000000
        50         3  IM1H      H4             10.4931666533      -19.9135099386       -2.6949299066  IM1H      3               0.0000000000
        51         3  IM1H      C3              8.8091563454      -18.6815008519       -1.9094753336  IM1H      3               0.0000000000
        52         3  IM1H      DC3             8.8085988721      -18.6729980140       -1.8951200182  IM1H      3               0.0000000000
        53         3  IM1H      H5              8.6907530105      -18.9255149880       -0.8609874925  IM1H      3               0.0000000000
        54         3  IM1H      C4              8.3625623689      -17.7768370260       -3.9016464210  IM1H      3               0.0000000000
        55         3  IM1H      DC4             8.3801196369      -17.7792899781       -3.9112979542  IM1H      3               0.0000000000
        56         3  IM1H      H6              7.9055440632      -17.2121956317       -4.7143052449  IM1H      3               0.0000000000
        57         3  IM1H      N2              7.9907551135      -17.8136150682       -2.6067193818  IM1H      3               0.0000000000
        58         3  IM1H      DN2             7.9956474672      -17.8174257467       -2.6069779603  IM1H      3               0.0000000000
        59         3  IM1H      H7              7.2729696001      -17.2510699902       -2.1964426556  IM1H      3               0.0000000000
        60         3  IM1H      LPN21           7.7633016965      -17.6547732684       -2.4925518480  IM1H      3               0.0000000000
        61         4  IM1H      C1              6.8412520462       26.5846330104        5.9781296768  IM1H      4               0.0000000000
        62         4  IM1H      DC1             6.8693295322       26.6166441384        5.9735844692  IM1H      4               0.0000000000
        63         4  IM1H      H1              6.8485430710       26.9861442612        4.9422452448  IM1H      4               0.0000000000
        64         4  IM1H      H2              5.8463873900       26.7633986839        6.4392241905  IM1H      4               0.0000000000
        65         4  IM1H      H3              7.0424496073       25.4920896996        5.9643581156  IM1H      4               0.0000000000
        66         4  IM1H      N1              7.8662202766       27.2707906048        6.7807263978  IM1H      4               0.0000000000
        67         4  IM1H      DN1             7.8907381400       27.2886875962        6.7883742861  IM1H      4               0.0000000000
        68         4  IM1H      C2              7.9146154027       28.6291539638        6.9884176983  IM1H      4               0.0000000000
        69         4  IM1H      DC2             7.9249119899       28.6060858476        6.9846541559  IM1H      4               0.0000000000
        70         4  IM1H      H4              7.1773629996       29.3199937370        6.5984326962  IM1H      4               0.0000000000
        71         4  IM1H      C3              9.0091299422       28.8670403832        7.7738266399  IM1H      4               0.0000000000
        72         4  IM1H      DC3             9.0152602545       28.8686458681        7.7737256059  IM1H      4               0.0000000000
        73         4  IM1H      H5              9.3694463340       29.8111797331        8.1632646782  IM1H      4               0.0000000000
        74         4  IM1H      C4              8.8845553551       26.6651725245        7.4104349595  IM1H      4               0.0000000000
        75         4  IM1H      DC4             8.8784688905       26.6838103843        7.3856677148  IM1H      4               0.0000000000
        76         4  IM1H      H6              9.0549637743       25.5891976668        7.4470283516  IM1H      4               0.0000000000
        77         4  IM1H      N2              9.5929559043       27.6378460093        8.0204645740  IM1H      4               0.0000000000
        78         4  IM1H      DN2             9.5965334355       27.6438073711        8.0202376122  IM1H      4               0.0000000000
        79         4  IM1H      H7             10.4014532909       27.4958407986        8.5915744547  IM1H      4               0.0000000000
        80         4  IM1H      LPN21           9.8396424443       27.5888238924        8.1839961703  IM1H      4               0.0000000000
        81         5  IM1H      C1            -11.2879661091      -10.5794810638        8.6649327956  IM1H      5               0.0000000000
        82         5  IM1H      DC1           -11.3245781352      -10.5610796308        8.5876313892  IM1H      5               0.0000000000
        83         5  IM1H      H1            -12.1883061470      -10.3798992513        9.2845100051  IM1H      5               0.0000000000
        84         5  IM1H      H2            -10.5387318946       -9.7719155995        8.8091795075  IM1H      5               0.0000000000
        85         5  IM1H      H3            -10.8347729412      -11.5391724764        8.9934588146  IM1H      5               0.0000000000
        86         5  IM1H      N1            -11.6699422297      -10.6650272104        7.2465262661  IM1H      5               0.0000000000
        87         5  IM1H      DN1           -11.6903908983      -10.6584638630        7.1827239580  IM1H      5               0.0000000000
        88         5  IM1H      C2            -12.1931635476       -9.6377366342        6.4942604818  IM1H      5               0.0000000000
        89         5  IM1H      DC2           -12.1966340168       -9.6369317522        6.4756115672  IM1H      5               0.0000000000
        90         5  IM1H      H4            -12.3931113151       -8.6621114726        6.9197783243  IM1H      5               0.0000000000
        91         5  IM1H      C3            -12.3392896211      -10.1162326638        5.2204506115  IM1H      5               0.0000000000
        92         5  IM1H      DC3           -12.3647337505      -10.1065143928        5.2033961883  IM1H      5               0.0000000000
        93         5  IM1H      H5            -12.6460719835       -9.6027761379        4.3176017981  IM1H      5               0.0000000000
        94         5  IM1H      C4            -11.5047942470      -11.7560366596        6.4898443992  IM1H      5               0.0000000000
        95         5  IM1H      DC4           -11.5279230928      -11.7277402893        6.4706324408  IM1H      5               0.0000000000
        96         5  IM1H      H6            -11.0293931544      -12.6733080630        6.8372734906  IM1H      5               0.0000000000
        97         5  IM1H      N2            -11.9087647342      -11.4278578725        5.2439198671  IM1H      5               0.0000000000
        98         5  IM1H      DN2           -11.9222724930      -11.4215165335        5.2210177164  IM1H      5               0.0000000000
        99         5  IM1H      H7            -11.7510131619      -11.9880494371        4.4307164158  IM1H      5               0.0000000000
       100         5  IM1H      LPN21         -11.9036683949      -11.6159155848        5.0102356268  IM1H      5               0.0000000000
       101         6  IM1H      C1             16.5984031522        6.8796266163        8.2528335862  IM1H      6               0.0000000000
       102         6  IM1H      DC1            16.6184793996        6.8809703441        8.2485177027  IM1H      6               0.0000000000
       103         6  IM1H      H1             16.3031574206        5.9201666141        8.7288456274  IM1H      6               0.0000000000
       104         6  IM1H      H2             16.3373252726        6.8611780821        7.1731026048  IM1H      6               0.0000000000
       105         6  IM1H      H3             16.0542131756        7.7112816170        8.7493496783  IM1H      6               0.0000000000
       106         6  IM1H      N1             18.0580995577        7.0688599966        8.4130578944  IM1H      6               0.0000000000
       107         6  IM1H      DN1            18.0724316236        7.0627563434        8.4058785977  IM1H      6               0.0000000000
       108         6  IM1H      C2             19.0097227063        6.1474484025        8.0426649789  IM1H      6               0.0000000000
       109         6  IM1H      DC2            18.9800795368        6.1544054626        8.0312589560  IM1H      6               0.0000000000
       110         6  IM1H      H4             18.7734336795        5.1988667902        7.5765647530  IM1H      6               0.0000000000
       111         6  IM1H      C3             20.2214821807        6.6386940431        8.4528493241  IM1H      6               0.0000000000
       112         6  IM1H      DC3            20.1929625740        6.6366669501        8.4252934042  IM1H      6               0.0000000000
       113         6  IM1H      H5             21.2080014503        6.1927923252        8.4238598672  IM1H      6               0.0000000000
       114         6  IM1H      C4             18.6429364455        8.1153107137        9.0196304069  IM1H      6               0.0000000000
       115         6  IM1H      DC4            18.6044689977        8.0949240140        8.9803177953  IM1H      6               0.0000000000
       116         6  IM1H      H6             18.1311272719        8.9320880194        9.5285765755  IM1H      6               0.0000000000
       117         6  IM1H      N2             19.9694946180        7.8535736502        9.0569766941  IM1H      6               0.0000000000
       118         6  IM1H      DN2            19.9451907504        7.8511620877        9.0295825492  IM1H      6               0.0000000000
       119         6  IM1H      H7             20.6457484950        8.3123001141        9.6333886348  IM1H      6               0.0000000000
       120         6  IM1H      LPN21          20.1743830489        8.0353768114        9.1793218676  IM1H      6               0.0000000000
       121         7  IM1H      C1             -3.0025507364       22.8072487077      -10.6970035884  IM1H      7               0.0000000000
       122         7  IM1H      DC1            -2.9787287098       22.8013806095      -10.7099293988  IM1H      7               0.0000000000
       123         7  IM1H      H1             -3.6573228623       23.0357533278       -9.8290288751  IM1H      7               0.0000000000
       124         7  IM1H      H2             -3.5043152296       22.0619940152      -11.3505698335  IM1H      7               0.0000000000
       125         7  IM1H      H3             -2.7892074425       23.7400766292      -11.2614836238  IM1H      7               0.0000000000
       126         7  IM1H      N1             -1.7469144050       22.2343273583      -10.1968179149  IM1H      7               0.0000000000
       127         7  IM1H      DN1            -1.7173643577       22.2353400916      -10.2021812017  IM1H      7               0.0000000000
       128         7  IM1H      C2             -1.6651101753       21.1029227151       -9.4244856034  IM1H      7               0.0000000000
       129         7  IM1H      DC2            -1.6443990139       21.1389579113       -9.4568843139  IM1H      7               0.0000000000
       130         7  IM1H      H4             -2.5254711336       20.5344706911       -9.0935319542  IM1H      7               0.0000000000
       131         7  IM1H      C3             -0.3380355182       20.8877510971       -9.1843479068  IM1H      7               0.0000000000
       132         7  IM1H      DC3            -0.3153864146       20.9038493980       -9.1968099050  IM1H      7               0.0000000000
       133         7  IM1H      H5              0.1010606462       20.0772360267       -8.6158860531  IM1H      7               0.0000000000
       134         7  IM1H      C4             -0.5236677420       22.7307300771      -10.4342168642  IM1H      7               0.0000000000
       135         7  IM1H      DC4            -0.5352525817       22.7321199443      -10.4524208019  IM1H      7               0.0000000000
       136         7  IM1H      H6             -0.3066133190       23.6489814655      -10.9799290275  IM1H      7               0.0000000000
       137         7  IM1H      N2              0.3470244706       21.9117453979       -9.8134421648  IM1H      7               0.0000000000
       138         7  IM1H      DN2             0.3636360455       21.9183079619       -9.8231522539  IM1H      7               0.0000000000
       139         7  IM1H      H7              1.3303307418       22.0706846909       -9.7248584299  IM1H      7               0.0000000000
       140         7  IM1H      LPN21           0.6444431944       21.9509815922       -9.8150619741  IM1H      7               0.0000000000
       141         8  IM1H      C1              0.6617467866       -8.0331360140        9.4905310553  IM1H      8               0.0000000000
       142         8  IM1H      DC1             0.6680875214       -8.0370877534        9.4920348873  IM1H      8               0.0000000000
       143         8  IM1H      H1             -0.3496383983       -8.2981815156        9.1148025739  IM1H      8               0.0000000000
       144         8  IM1H      H2              1.2830496902       -8.9510924581        9.5657618263  IM1H      8               0.0000000000
       145         8  IM1H      H3              1.1439594296       -7.2984858906        8.8107655358  IM1H      8               0.0000000000
       146         8  IM1H      N1              0.5198682447       -7.4427514839       10.8313302791  IM1H      8               0.0000000000
       147         8  IM1H      DN1             0.5245887429       -7.4384452601       10.8329760639  IM1H      8               0.0000000000
       148         8  IM1H      C2             -0.0146137546       -8.1052095722       11.9087400761  IM1H      8               0.0000000000
       149         8  IM1H      DC2             0.0085515058       -8.0931654399       11.8693312502  IM1H      8               0.0000000000
       150         8  IM1H      H4             -0.4431208852       -9.0986329694       11.8599487573  IM1H      8               0.0000000000
       151         8  IM1H      C3              0.0346557912       -7.2369763403       12.9660151607  IM1H      8               0.0000000000
       152         8  IM1H      DC3             0.0527118228       -7.2458724226       12.9409497825  IM1H      8               0.0000000000
       153         8  IM1H      H5             -0.3406049481       -7.3658100101       13.9737206057  IM1H      8               0.0000000000
       154         8  IM1H      C4              0.8881379415       -6.1977247139       11.1814918786  IM1H      8               0.0000000000
       155         8  IM1H      DC4             0.9031580464       -6.2336539565       11.1504860465  IM1H      8               0.0000000000
       156         8  IM1H      H6              1.2906255644       -5.4325772865       10.5176747895  IM1H      8               0.0000000000
       157         8  IM1H      N2              0.5844215997       -6.0591217239       12.4898714629  IM1H      8               0.0000000000
       158         8  IM1H      DN2             0.6048529067       -6.0732447379       12.4698055206  IM1H      8               0.0000000000
       159         8  IM1H      H7              0.5472104695       -5.1978508165       12.9966532266  IM1H      8               0.0000000000
       160         8  IM1H      LPN21           0.6312552219       -5.8086268780       12.6481716337  IM1H      8               0.0000000000
       161         9  IM1H      C1              9.3335292885       10.0335042832      -26.1205958594  IM1H      9               0.0000000000
       162         9  IM1H      DC1             9.3288428425       10.0426172144      -26.1009935245  IM1H      9               0.0000000000
       163         9  IM1H      H1              8.4983847648        9.6329803367      -26.7341390066  IM1H      9               0.0000000000
       164         9  IM1H      H2              9.7783201033        9.2220124182      -25.5058088361  IM1H      9               0.0000000000
       165         9  IM1H      H3             10.1096325130       10.4648636815      -26.7883636758  IM1H      9               0.0000000000
       166         9  IM1H      N1              8.8110263683       11.0789799699      -25.2234796604  IM1H      9               0.0000000000
       167         9  IM1H      DN1             8.8071704518       11.0929990873      -25.2106680006  IM1H      9               0.0000000000
       168         9  IM1H      C2              7.8220017622       10.8814728299      -24.2883302802  IM1H      9               0.0000000000
       169         9  IM1H      DC2             7.8533042803       10.8824859324      -24.3069404080  IM1H      9               0.0000000000
       170         9  IM1H      H4              7.2903100350        9.9474372749      -24.1550242818  IM1H      9               0.0000000000
       171         9  IM1H      C3              7.6507439206       12.0741523835      -23.6394180732  IM1H      9               0.0000000000
       172         9  IM1H      DC3             7.6579323406       12.0680279872      -23.6572473282  IM1H      9               0.0000000000
       173         9  IM1H      H5              6.9674263369       12.3250519027      -22.8375355926  IM1H      9               0.0000000000
       174         9  IM1H      C4              9.2515716848       12.3474479791      -25.1762834629  IM1H      9               0.0000000000
       175         9  IM1H      DC4             9.2489824573       12.3170781039      -25.1898709382  IM1H      9               0.0000000000
       176         9  IM1H      H6             10.0340730567       12.7742045093      -25.8037151061  IM1H      9               0.0000000000
       177         9  IM1H      N2              8.5453484929       12.9640960112      -24.2044448686  IM1H      9               0.0000000000
       178         9  IM1H      DN2             8.5464466902       12.9582488968      -24.2194790871  IM1H      9               0.0000000000
       179         9  IM1H      H7              8.6795412115       13.8961025376      -23.8677608194  IM1H      9               0.0000000000
       180         9  IM1H      LPN21           8.5813392662       13.2516408762      -24.1268393610  IM1H      9               0.0000000000
       181        10  IM1H      C1              7.6839638361      -13.7955992042       18.9718185951  IM1H      10              0.0000000000
       182        10  IM1H      DC1             7.7009063975      -13.7888305002       18.9615758409  IM1H      10              0.0000000000
       183        10  IM1H      H1              8.2478576950      -13.1546870449       18.2607796919  IM1H      10              0.0000000000
       184        10  IM1H      H2              6.7202288882      -13.3140351876       19.2431708554  IM1H      10              0.0000000000
       185        10  IM1H      H3              7.4971803853      -14.7946632881       18.5231495648  IM1H      10              0.0000000000
       186        10  IM1H      N1              8.4892971990      -13.9521854148       20.1894595137  IM1H      10              0.0000000000
       187        10  IM1H      DN1             8.4933501437      -13.9499102159       20.1982858948  IM1H      10              0.0000000000
       188        10  IM1H      C2              8.8303333458      -12.9214195043       21.0303056636  IM1H      10              0.0000000000
       189        10  IM1H      DC2             8.8332747157      -12.9410880745       21.0113517836  IM1H      10              0.0000000000
       190        10  IM1H      H4              8.4522272501      -11.9135135890       20.9117710851  IM1H      10              0.0000000000
       191        10  IM1H      C3              9.6558241807      -13.4521894594       21.9866313764  IM1H      10              0.0000000000
       192        10  IM1H      DC3             9.6540655152      -13.4463576976       21.9750101955  IM1H      10              0.0000000000
       193        10  IM1H      H5             10.1271550391      -12.9676362813       22.8327663777  IM1H      10              0.0000000000
       194        10  IM1H      C4              9.0540894862      -15.0958301432       20.5984397597  IM1H      10              0.0000000000
       195        10  IM1H      DC4             9.0453160974      -15.0634148877       20.5676145897  IM1H      10              0.0000000000
       196        10  IM1H      H6              8.8794076857      -16.0862348588       20.1781008868  IM1H      10              0.0000000000
       197        10  IM1H      N2              9.7735744172      -14.8001688830       21.7006819078  IM1H      10              0.0000000000
       198        10  IM1H      DN2             9.7717717463      -14.7901188559       21.6876092904  IM1H      10              0.0000000000
       199        10  IM1H      H7             10.1168897809      -15.4761795155       22.3527127244  IM1H      10              0.0000000000
       200        10  IM1H      LPN21           9.9332246916      -15.0008890747       21.8563199319  IM1H      10              0.0000000000
       201        11  IM1H      C1            -24.7087820415      -19.6590192948      -16.8221801906  IM1H      11              0.0000000000
       202        11  IM1H      DC1           -24.7088182016      -19.6457798150      -16.8205496432  IM1H      11              0.0000000000
       203        11  IM1H      H1            -25.2319809451      -20.1021931776      -17.6963545539  IM1H      11              0.0000000000
       204        11  IM1H      H2            -25.0054879138      -20.1962317131      -15.8960649478  IM1H      11              0.0000000000
       205        11  IM1H      H3            -23.6104931268      -19.7433857982      -16.9669722912  IM1H      11              0.0000000000
       206        11  IM1H      N1            -25.0914259024      -18.2358757774      -16.6927625980  IM1H      11              0.0000000000
       207        11  IM1H      DN1           -25.0920637300      -18.2167052255      -16.6975688158  IM1H      11              0.0000000000
       208        11  IM1H      C2            -26.3810649811      -17.7963318707      -16.5040512939  IM1H      11              0.0000000000
       209        11  IM1H      DC2           -26.3556311835      -17.8203080126      -16.4998752609  IM1H      11              0.0000000000
       210        11  IM1H      H4            -27.2322868816      -18.4650487024      -16.4704644647  IM1H      11              0.0000000000
       211        11  IM1H      C3            -26.3394990201      -16.4245090311      -16.5159051663  IM1H      11              0.0000000000
       212        11  IM1H      DC3           -26.3157947700      -16.4666440662      -16.4841607934  IM1H      11              0.0000000000
       213        11  IM1H      H5            -27.1317097522      -15.6886808425      -16.5779376804  IM1H      11              0.0000000000
       214        11  IM1H      C4            -24.2555148821      -17.1870281289      -16.7962324258  IM1H      11              0.0000000000
       215        11  IM1H      DC4           -24.2487674763      -17.2167184328      -16.8002722273  IM1H      11              0.0000000000
       216        11  IM1H      H6            -23.1799660232      -17.2495933292      -16.9617022055  IM1H      11              0.0000000000
       217        11  IM1H      N2            -25.0151476991      -16.0740216706      -16.6883343120  IM1H      11              0.0000000000
       218        11  IM1H      DN2           -24.9939849728      -16.0916116781      -16.6788424998  IM1H      11              0.0000000000
       219        11  IM1H      H7            -24.7609737748      -15.1240801069      -16.8700116131  IM1H      11              0.0000000000
       220        11  IM1H      LPN21         -24.9071910131      -15.7943912991      -16.7006716251  IM1H      11              0.0000000000
       221        12  IM1H      C1             12.7202805349      -24.3027362842       25.9808698144  IM1H      12              0.0000000000
       222        12  IM1H      DC1            12.7346821912      -24.3313689000       25.9613443275  IM1H      12              0.0000000000
       223        12  IM1H      H1             13.4779502385      -23.9043825167       26.6890872228  IM1H      12              0.0000000000
       224        12  IM1H      H2             13.0919945221      -24.2486300307       24.9352971361  IM1H      12              0.0000000000
       225        12  IM1H      H3             12.4633467798      -25.3428187854       26.2750371751  IM1H      12              0.0000000000
       226        12  IM1H      N1             11.5245201246      -23.4661751200       26.1003562747  IM1H      12              0.0000000000
       227        12  IM1H      DN1            11.5329434896      -23.4760050802       26.0916631250  IM1H      12              0.0000000000
       228        12  IM1H      C2             11.5416182820      -22.0958112508       26.1952008100  IM1H      12              0.0000000000
       229        12  IM1H      DC2            11.5580899402      -22.1429141133       26.1754825063  IM1H      12              0.0000000000
       230        12  IM1H      H4             12.4249877545      -21.4781593386       26.0900652283  IM1H      12              0.0000000000
       231        12  IM1H      C3             10.2580118719      -21.7110870198       26.4604142377  IM1H      12              0.0000000000
       232        12  IM1H      DC3            10.2906483280      -21.7281044894       26.4553795227  IM1H      12              0.0000000000
       233        12  IM1H      H5              9.8186043522      -20.7268233351       26.5654619917  IM1H      12              0.0000000000
       234        12  IM1H      C4             10.2811129111      -23.9368435083       26.2895032161  IM1H      12              0.0000000000
       235        12  IM1H      DC4            10.3420108355      -23.9673944424       26.2917495048  IM1H      12              0.0000000000
       236        12  IM1H      H6              9.9411231638      -24.9712371531       26.2391369660  IM1H      12              0.0000000000
       237        12  IM1H      N2              9.5036422475      -22.8655354977       26.5292477338  IM1H      12              0.0000000000
       238        12  IM1H      DN2             9.5382264664      -22.8914048041       26.5397684121  IM1H      12              0.0000000000
       239        12  IM1H      H7              8.5154127809      -22.8238202065       26.3820663631  IM1H      12              0.0000000000
       240        12  IM1H      LPN21           9.2099672771      -22.8815269274       26.5884024968  IM1H      12              0.0000000000
       241        13  IM1H      C1             25.7548875842       -4.9394975995       25.3212237910  IM1H      13              0.0000000000
       242        13  IM1H      DC1            25.7394114968       -4.9387074809       25.3111665911  IM1H      13              0.0000000000
       243        13  IM1H      H1             26.4535328453       -4.5956652595       26.1136852223  IM1H      13              0.0000000000
       244        13  IM1H      H2             26.0957645110       -4.5694792818       24.3306631588  IM1H      13              0.0000000000
       245        13  IM1H      H3             25.7044959348       -6.0493515009       25.3236731127  IM1H      13              0.0000000000
       246        13  IM1H      N1             24.4247634356       -4.3880464763       25.6044770519  IM1H      13              0.0000000000
       247        13  IM1H      DN1            24.4162032080       -4.3783132083       25.6018179794  IM1H      13              0.0000000000
       248        13  IM1H      C2             24.1316978429       -3.0443598121       25.6275375273  IM1H      13              0.0000000000
       249        13  IM1H      DC2            24.1357161889       -3.0712867580       25.6251366531  IM1H      13              0.0000000000
       250        13  IM1H      H4             24.8597120446       -2.2685740697       25.4249522265  IM1H      13              0.0000000000
       251        13  IM1H      C3             22.8084903549       -2.9397691504       25.9524570876  IM1H      13              0.0000000000
       252        13  IM1H      DC3            22.8148051225       -2.9326166654       25.9548938875  IM1H      13              0.0000000000
       253        13  IM1H      H5             22.1971440589       -2.0541202760       26.0739921778  IM1H      13              0.0000000000
       254        13  IM1H      C4             23.3378211948       -5.1104312805       25.9069278573  IM1H      13              0.0000000000
       255        13  IM1H      DC4            23.3916727098       -5.0941055083       25.8939716828  IM1H      13              0.0000000000
       256        13  IM1H      H6             23.2258278605       -6.1937845199       25.9505541295  IM1H      13              0.0000000000
       257        13  IM1H      N2             22.3460209243       -4.2293999314       26.1226809531  IM1H      13              0.0000000000
       258        13  IM1H      DN2            22.3642616510       -4.2180545965       26.1299348373  IM1H      13              0.0000000000
       259        13  IM1H      H7             21.3831474250       -4.4941817941       26.1752660213  IM1H      13              0.0000000000
       260        13  IM1H      LPN21          22.0662083000       -4.3080719555       26.1969480919  IM1H      13              0.0000000000
       261        14  IM1H      C1            -10.9238335512      -15.2695319622      -17.3513533772  IM1H      14              0.0000000000
       262        14  IM1H      DC1           -10.9297618179      -15.2501761501      -17.3164908491  IM1H      14              0.0000000000
       263        14  IM1H      H1            -10.2990201890      -16.1363808817      -17.6554951421  IM1H      14              0.0000000000
       264        14  IM1H      H2            -11.9649345938      -15.6087135273      -17.1632430771  IM1H      14              0.0000000000
       265        14  IM1H      H3            -10.4933755899      -14.7809897943      -16.4511570131  IM1H      14              0.0000000000
       266        14  IM1H      N1            -10.9416364198      -14.3131727611      -18.4672012028  IM1H      14              0.0000000000
       267        14  IM1H      DN1           -10.9458114103      -14.2907276152      -18.4508360445  IM1H      14              0.0000000000
       268        14  IM1H      C2            -11.3310864424      -14.6360848021      -19.7416535361  IM1H      14              0.0000000000
       269        14  IM1H      DC2           -11.3265976614      -14.5963120279      -19.6830617623  IM1H      14              0.0000000000
       270        14  IM1H      H4            -11.6462503513      -15.6240255674      -20.0539574823  IM1H      14              0.0000000000
       271        14  IM1H      C3            -11.1563944349      -13.5146703138      -20.5025647264  IM1H      14              0.0000000000
       272        14  IM1H      DC3           -11.1460683859      -13.4953212097      -20.4721214601  IM1H      14              0.0000000000
       273        14  IM1H      H5            -11.3282615136      -13.3968729831      -21.5653321027  IM1H      14              0.0000000000
       274        14  IM1H      C4            -10.5281594723      -13.0352490557      -18.4143674224  IM1H      14              0.0000000000
       275        14  IM1H      DC4           -10.5275353416      -13.0455703339      -18.3763504701  IM1H      14              0.0000000000
       276        14  IM1H      H6            -10.1342750404      -12.5220889112      -17.5370865549  IM1H      14              0.0000000000
       277        14  IM1H      N2            -10.6614300881      -12.5372873158      -19.6614627943  IM1H      14              0.0000000000
       278        14  IM1H      DN2           -10.6503974621      -12.5307890000      -19.6401474366  IM1H      14              0.0000000000
       279        14  IM1H      H7            -10.4586693767      -11.6067518665      -19.9664084804  IM1H      14              0.0000000000
       280        14  IM1H      LPN21         -10.5924056498      -12.2557862228      -19.7388757230  IM1H      14              0.0000000000
       281        15  IM1H      C1             10.0534638768      -12.6362937604       14.0454511056  IM1H      15              0.0000000000
       282        15  IM1H      DC1            10.0524657402      -12.6034580723       14.0462230920  IM1H      15              0.0000000000
       283        15  IM1H      H1             10.3266496839      -12.6178283188       12.9687201536  IM1H      15              0.0000000000
       284        15  IM1H      H2              9.1356409273      -13.2437028162       14.1970303663  IM1H      15              0.0000000000
       285        15  IM1H      H3             10.8927784103      -13.0756189487       14.6258522550  IM1H      15              0.0000000000
       286        15  IM1H      N1              9.8054001617      -11.2648862665       14.5106054581  IM1H      15              0.0000000000
       287        15  IM1H      DN1             9.8011831799      -11.2430094358       14.5175587702  IM1H      15              0.0000000000
       288        15  IM1H      C2              8.9022352288      -10.4058737448       13.9333985931  IM1H      15              0.0000000000
       289        15  IM1H      DC2             8.9210821378      -10.4185902668       13.9423238798  IM1H      15              0.0000000000
       290        15  IM1H      H4              8.2616974193      -10.6880645299       13.1069794043  IM1H      15              0.0000000000
       291        15  IM1H      C3              8.9935497885       -9.2232966314       14.6154208263  IM1H      15              0.0000000000
       292        15  IM1H      DC3             9.0010716990       -9.2212255914       14.6050497480  IM1H      15              0.0000000000
       293        15  IM1H      H5              8.4344427527       -8.3067008961       14.4735033134  IM1H      15              0.0000000000
       294        15  IM1H      C4             10.4491630470      -10.6566410914       15.5171778615  IM1H      15              0.0000000000
       295        15  IM1H      DC4            10.4489784729      -10.6792639367       15.4806324029  IM1H      15              0.0000000000
       296        15  IM1H      H6             11.1741495173      -11.1020413861       16.1984363993  IM1H      15              0.0000000000
       297        15  IM1H      N2              9.9517237362       -9.4057628131       15.5948162493  IM1H      15              0.0000000000
       298        15  IM1H      DN2             9.9575742864       -9.4071907115       15.5766167134  IM1H      15              0.0000000000
       299        15  IM1H      H7             10.1065375739       -8.7845829171       16.3630403132  IM1H      15              0.0000000000
       300        15  IM1H      LPN21          10.0396853958       -9.2018985266       15.7965638617  IM1H      15              0.0000000000
       301        16  IM1H      C1             23.1191114823       15.4332836624      -11.5441231191  IM1H      16              0.0000000000
       302        16  IM1H      DC1            23.1229461854       15.4637797256      -11.5301728414  IM1H      16              0.0000000000
       303        16  IM1H      H1             23.4877416902       15.1595370745      -10.5324435374  IM1H      16              0.0000000000
       304        16  IM1H      H2             23.9706233153       15.6300252091      -12.2300832944  IM1H      16              0.0000000000
       305        16  IM1H      H3             22.5061371678       14.6003507889      -11.9500865649  IM1H      16              0.0000000000
       306        16  IM1H      N1             22.3015568148       16.6472550259      -11.4532954545  IM1H      16              0.0000000000
       307        16  IM1H      DN1            22.2951938901       16.6740727315      -11.4429541191  IM1H      16              0.0000000000
       308        16  IM1H      C2             22.7624368141       17.8219606265      -10.9085948129  IM1H      16              0.0000000000
       309        16  IM1H      DC2            22.7518225829       17.8088314270      -10.9084187017  IM1H      16              0.0000000000
       310        16  IM1H      H4             23.7614187156       17.9285503124      -10.5041658335  IM1H      16              0.0000000000
       311        16  IM1H      C3             21.7466287401       18.7279522438      -11.0152655204  IM1H      16              0.0000000000
       312        16  IM1H      DC3            21.7521176214       18.7304355421      -11.0072474206  IM1H      16              0.0000000000
       313        16  IM1H      H5             21.7133155610       19.7596277794      -10.6875082606  IM1H      16              0.0000000000
       314        16  IM1H      C4             21.0409518878       16.7900764208      -11.8989951290  IM1H      16              0.0000000000
       315        16  IM1H      DC4            21.0813451642       16.8215900591      -11.8688544121  IM1H      16              0.0000000000
       316        16  IM1H      H6             20.4396541556       16.0062736476      -12.3596406001  IM1H      16              0.0000000000
       317        16  IM1H      N2             20.6977207972       18.0699966967      -11.6361861393  IM1H      16              0.0000000000
       318        16  IM1H      DN2            20.6975456983       18.0843089148      -11.6302689364  IM1H      16              0.0000000000
       319        16  IM1H      H7             19.7820916428       18.4594080553      -11.7360963260  IM1H      16              0.0000000000
       320        16  IM1H      LPN21          20.4310546254       18.1890823127      -11.7047993224  IM1H      16              0.0000000000
       321        17  IM1H      C1              0.5853143946       -0.8803749976        4.4368544653  IM1H      17              0.0000000000
       322        17  IM1H      DC1             0.5861569471       -0.9077704534        4.3842842856  IM1H      17              0.0000000000
       323        17  IM1H      H1              0.1121142641       -1.4518344846        3.6099102766  IM1H      17              0.0000000000
       324        17  IM1H      H2             -0.1214576054       -0.1490362050        4.8839986382  IM1H      17              0.0000000000
       325        17  IM1H      H3              0.9392203207       -1.5575044202        5.2434320133  IM1H      17              0.0000000000
       326        17  IM1H      N1              1.7220511705       -0.1359096441        3.8944530093  IM1H      17              0.0000000000
       327        17  IM1H      DN1             1.7324270109       -0.1275666821        3.8574511811  IM1H      17              0.0000000000
       328        17  IM1H      C2              1.6426747268        0.7417837954        2.8428273407  IM1H      17              0.0000000000
       329        17  IM1H      DC2             1.6557590535        0.7229610161        2.8336949007  IM1H      17              0.0000000000
       330        17  IM1H      H4              0.6967055192        1.0154110947        2.3920953145  IM1H      17              0.0000000000
       331        17  IM1H      C3              2.8692811236        1.3279919160        2.7361550941  IM1H      17              0.0000000000
       332        17  IM1H      DC3             2.8825022735        1.2952409601        2.6880203396  IM1H      17              0.0000000000
       333        17  IM1H      H5              3.1520296618        2.2185507112        2.1885719530  IM1H      17              0.0000000000
       334        17  IM1H      C4              2.9470742915       -0.1159689924        4.4307560484  IM1H      17              0.0000000000
       335        17  IM1H      DC4             2.9518413522       -0.1372650244        4.3306616873  IM1H      17              0.0000000000
       336        17  IM1H      H6              3.2112645494       -0.5844270252        5.3788333549  IM1H      17              0.0000000000
       337        17  IM1H      N2              3.6563370264        0.7946047030        3.7425493179  IM1H      17              0.0000000000
       338        17  IM1H      DN2             3.6819275067        0.7907661815        3.7097151831  IM1H      17              0.0000000000
       339        17  IM1H      H7              4.3631030171        1.3424746624        4.1901209233  IM1H      17              0.0000000000
       340        17  IM1H      LPN21           3.9412437065        0.8663885186        3.8031733020  IM1H      17              0.0000000000
       341        18  IM1H      C1            -12.1144607715        6.4013791560      -15.7357654026  IM1H      18              0.0000000000
       342        18  IM1H      DC1           -12.0907617366        6.4075300372      -15.7333216193  IM1H      18              0.0000000000
       343        18  IM1H      H1            -11.2977625360        5.7709544093      -15.3235887034  IM1H      18              0.0000000000
       344        18  IM1H      H2            -11.8770314200        7.4806596332      -15.6213016275  IM1H      18              0.0000000000
       345        18  IM1H      H3            -12.2727342378        6.1628897972      -16.8092612505  IM1H      18              0.0000000000
       346        18  IM1H      N1            -13.3518532589        6.1183022692      -14.9942638707  IM1H      18              0.0000000000
       347        18  IM1H      DN1           -13.3407507674        6.1294281736      -14.9946615548  IM1H      18              0.0000000000
       348        18  IM1H      C2            -13.4911004772        6.2951853535      -13.6386761119  IM1H      18              0.0000000000
       349        18  IM1H      DC2           -13.4387007212        6.2949621145      -13.6728561231  IM1H      18              0.0000000000
       350        18  IM1H      H4            -12.7308272399        6.7052182772      -12.9854176591  IM1H      18              0.0000000000
       351        18  IM1H      C3            -14.7985214844        6.0341556930      -13.3495720026  IM1H      18              0.0000000000
       352        18  IM1H      DC3           -14.7156933607        5.9792797295      -13.3503359516  IM1H      18              0.0000000000
       353        18  IM1H      H5            -15.3916758452        6.2707522929      -12.4748840842  IM1H      18              0.0000000000
       354        18  IM1H      C4            -14.5286837251        5.7634898975      -15.5471967212  IM1H      18              0.0000000000
       355        18  IM1H      DC4           -14.4607403221        5.7693729827      -15.5797885794  IM1H      18              0.0000000000
       356        18  IM1H      H6            -14.7371355253        5.6346566497      -16.6092936288  IM1H      18              0.0000000000
       357        18  IM1H      N2            -15.4264803824        5.7110053265      -14.5432592093  IM1H      18              0.0000000000
       358        18  IM1H      DN2           -15.3575303690        5.6711534882      -14.5712442865  IM1H      18              0.0000000000
       359        18  IM1H      H7            -16.3972940316        5.9473041457      -14.5842924472  IM1H      18              0.0000000000
       360        18  IM1H      LPN21         -15.7156731065        5.6397993231      -14.5792768913  IM1H      18              0.0000000000
       361        19  IM1H      C1            -13.5712719149       26.8777401699       -8.4702364347  IM1H      19              0.0000000000
       362        19  IM1H      DC1           -13.5877681487       26.8949351319       -8.4816671803  IM1H      19              0.0000000000
       363        19  IM1H      H1            -13.5396586597       27.5545311832       -7.5897391157  IM1H      19              0.0000000000
       364        19  IM1H      H2            -13.3827836520       27.4226311596       -9.4199137402  IM1H      19              0.0000000000
       365        19  IM1H      H3            -12.8045339793       26.0859756798       -8.3304404040  IM1H      19              0.0000000000
       366        19  IM1H      N1            -14.8647847892       26.2061098143       -8.5198102469  IM1H      19              0.0000000000
       367        19  IM1H      DN1           -14.8837271129       26.2267708834       -8.5211918143  IM1H      19              0.0000000000
       368        19  IM1H      C2            -16.0761058489       26.8434718184       -8.4986978337  IM1H      19              0.0000000000
       369        19  IM1H      DC2           -16.0615548978       26.8538444270       -8.4868355889  IM1H      19              0.0000000000
       370        19  IM1H      H4            -16.1618287217       27.9194238340       -8.5873987320  IM1H      19              0.0000000000
       371        19  IM1H      C3            -17.0195945143       25.8688012899       -8.3222973540  IM1H      19              0.0000000000
       372        19  IM1H      DC3           -17.0436024225       25.9120247062       -8.3442104751  IM1H      19              0.0000000000
       373        19  IM1H      H5            -18.0924767758       25.9481463686       -8.1977300568  IM1H      19              0.0000000000
       374        19  IM1H      C4            -15.0232522112       24.8860590780       -8.3913531666  IM1H      19              0.0000000000
       375        19  IM1H      DC4           -14.9879799976       24.9618473280       -8.4515628716  IM1H      19              0.0000000000
       376        19  IM1H      H6            -14.2563814061       24.1227646394       -8.2594791041  IM1H      19              0.0000000000
       377        19  IM1H      N2            -16.3394119749       24.6674471273       -8.2351013274  IM1H      19              0.0000000000
       378        19  IM1H      DN2           -16.3502707242       24.7274230608       -8.3138530465  IM1H      19              0.0000000000
       379        19  IM1H      H7            -16.4832221748       24.0210345044       -7.4857887443  IM1H      19              0.0000000000
       380        19  IM1H      LPN21         -16.4605172021       24.3969237125       -8.1887267012  IM1H      19              0.0000000000
       381        20  IM1H      C1             23.9847408748       23.8902120650        4.1922955374  IM1H      20              0.0000000000
       382        20  IM1H      DC1            23.9679803342       23.9499464928        4.2169879453  IM1H      20              0.0000000000
       383        20  IM1H      H1             25.0728921703       24.0768911487        4.0682041289  IM1H      20              0.0000000000
       384        20  IM1H      H2             23.4433935204       24.0987589484        3.2447870992  IM1H      20              0.0000000000
       385        20  IM1H      H3             23.8380838202       22.8227967521        4.4632886345  IM1H      20              0.0000000000
       386        20  IM1H      N1             23.4558384033       24.7566717508        5.2567275054  IM1H      20              0.0000000000
       387        20  IM1H      DN1            23.4421745511       24.7940062542        5.2887828566  IM1H      20              0.0000000000
       388        20  IM1H      C2             23.4838013207       26.1313029602        5.2429651575  IM1H      20              0.0000000000
       389        20  IM1H      DC2            23.4815874737       26.1326883665        5.2589734501  IM1H      20              0.0000000000
       390        20  IM1H      H4             23.9083429487       26.6931824748        4.4201985944  IM1H      20              0.0000000000
       391        20  IM1H      C3             22.8666681886       26.5479356578        6.3906625484  IM1H      20              0.0000000000
       392        20  IM1H      DC3            22.8719788109       26.5801009912        6.4081302151  IM1H      20              0.0000000000
       393        20  IM1H      H5             22.6672446680       27.5578657839        6.7270557705  IM1H      20              0.0000000000
       394        20  IM1H      C4             22.8545997897       24.3136706660        6.3685362576  IM1H      20              0.0000000000
       395        20  IM1H      DC4            22.8750091372       24.3435200474        6.3642633737  IM1H      20              0.0000000000
       396        20  IM1H      H6             22.6297984443       23.2669264563        6.5732089587  IM1H      20              0.0000000000
       397        20  IM1H      N2             22.4820683162       25.4053096912        7.0688672313  IM1H      20              0.0000000000
       398        20  IM1H      DN2            22.4915593705       25.4289493460        7.0797606525  IM1H      20              0.0000000000
       399        20  IM1H      H7             21.8432430361       25.3772439676        7.8377069914  IM1H      20              0.0000000000
       400        20  IM1H      LPN21          22.3377246326       25.3955369053        7.3316777974  IM1H      20              0.0000000000
       401        21  IM1H      C1             26.8237108814      -10.8740572024       -6.9041350771  IM1H      21              0.0000000000
       402        21  IM1H      DC1            26.8244243956      -10.8715921401       -6.9233228253  IM1H      21              0.0000000000
       403        21  IM1H      H1             25.7973737670      -10.6683680256       -7.2764858393  IM1H      21              0.0000000000
       404        21  IM1H      H2             27.2336379101       -9.9845115389       -6.3797408125  IM1H      21              0.0000000000
       405        21  IM1H      H3             26.8226853196      -11.7389315215       -6.2067740796  IM1H      21              0.0000000000
       406        21  IM1H      N1             27.6899842343      -11.1790916225       -8.0447978549  IM1H      21              0.0000000000
       407        21  IM1H      DN1            27.7026419119      -11.1913967227       -8.0584592002  IM1H      21              0.0000000000
       408        21  IM1H      C2             28.0108024864      -10.2798001034       -9.0269315709  IM1H      21              0.0000000000
       409        21  IM1H      DC2            28.0253222282      -10.3096854146       -8.9944711402  IM1H      21              0.0000000000
       410        21  IM1H      H4             27.5513395582       -9.3043255876       -9.1280863363  IM1H      21              0.0000000000
       411        21  IM1H      C3             28.8675935263      -10.9243449163       -9.8737735698  IM1H      21              0.0000000000
       412        21  IM1H      DC3            28.8967935396      -10.9301247731       -9.8600770807  IM1H      21              0.0000000000
       413        21  IM1H      H5             29.2552370923      -10.5706539042      -10.8211510733  IM1H      21              0.0000000000
       414        21  IM1H      C4             28.3017514899      -12.3541018670       -8.2618039448  IM1H      21              0.0000000000
       415        21  IM1H      DC4            28.2947684530      -12.3349316263       -8.2671770794  IM1H      21              0.0000000000
       416        21  IM1H      H6             28.1984405327      -13.2332626023       -7.6257982470  IM1H      21              0.0000000000
       417        21  IM1H      N2             29.0191369774      -12.2084050114       -9.3932108174  IM1H      21              0.0000000000
       418        21  IM1H      DN2            29.0289213005      -12.2153984981       -9.3942640224  IM1H      21              0.0000000000
       419        21  IM1H      H7             29.4878334375      -12.9347678021       -9.8959241796  IM1H      21              0.0000000000
       420        21  IM1H      LPN21          29.1848377338      -12.4255366821       -9.5172958563  IM1H      21              0.0000000000
       421        22  IM1H      C1            -28.0405637859      -10.0374430117       -9.6127480660  IM1H      22              0.0000000000
       422        22  IM1H      DC1           -28.0456704473      -10.0574708813       -9.6221511274  IM1H      22              0.0000000000
       423        22  IM1H      H1            -28.3194760309      -10.6208192021       -8.7093095336  IM1H      22              0.0000000000
       424        22  IM1H      H2            -28.4163146689      -10.5268990460      -10.5366339168  IM1H      22              0.0000000000
       425        22  IM1H      H3            -28.4493374185       -9.0075947500       -9.5312761378  IM1H      22              0.0000000000
       426        22  IM1H      N1            -26.5771595624       -9.9652892732       -9.6922981926  IM1H      22              0.0000000000
       427        22  IM1H      DN1           -26.5725756701       -9.9798994960       -9.6953185507  IM1H      22              0.0000000000
       428        22  IM1H      C2            -25.7492864974      -11.0593254793       -9.7922599804  IM1H      22              0.0000000000
       429        22  IM1H      DC2           -25.7709917034      -11.0478446576       -9.7865095353  IM1H      22              0.0000000000
       430        22  IM1H      H4            -26.1016241057      -12.0828857348       -9.8249955147  IM1H      22              0.0000000000
       431        22  IM1H      C3            -24.4694293852      -10.5785959685       -9.8356921759  IM1H      22              0.0000000000
       432        22  IM1H      DC3           -24.4777689109      -10.5891033523       -9.8342206284  IM1H      22              0.0000000000
       433        22  IM1H      H5            -23.5373130644      -11.1248619586       -9.9108029779  IM1H      22              0.0000000000
       434        22  IM1H      C4            -25.8597648126       -8.8312056626       -9.6775817909  IM1H      22              0.0000000000
       435        22  IM1H      DC4           -25.8892233049       -8.8836095337       -9.6999453164  IM1H      22              0.0000000000
       436        22  IM1H      H6            -26.2367960881       -7.8254248010       -9.4922381218  IM1H      22              0.0000000000
       437        22  IM1H      N2            -24.5625379073       -9.1997233617       -9.7653639045  IM1H      22              0.0000000000
       438        22  IM1H      DN2           -24.5685647780       -9.2146793097       -9.7742506483  IM1H      22              0.0000000000
       439        22  IM1H      H7            -23.7917605482       -8.5795876622       -9.6193023528  IM1H      22              0.0000000000
       440        22  IM1H      LPN21         -24.3327703689       -9.0068612154       -9.7686911943  IM1H      22              0.0000000000
       441        23  IM1H      C1            -17.5240264180       -7.1235610176        8.2274853627  IM1H      23              0.0000000000
       442        23  IM1H      DC1           -17.5435937662       -7.1478376283        8.1919490675  IM1H      23              0.0000000000
       443        23  IM1H      H1            -17.7379911271       -6.9210028197        9.2987044241  IM1H      23              0.0000000000
       444        23  IM1H      H2            -17.6479339774       -6.1851507076        7.6458033127  IM1H      23              0.0000000000
       445        23  IM1H      H3            -16.4810144860       -7.4947198912        8.1342748444  IM1H      23              0.0000000000
       446        23  IM1H      N1            -18.4694415876       -8.1436359895        7.7319998569  IM1H      23              0.0000000000
       447        23  IM1H      DN1           -18.4916929609       -8.1667958936        7.7109086248  IM1H      23              0.0000000000
       448        23  IM1H      C2            -19.8306104042       -7.9726145961        7.6662475630  IM1H      23              0.0000000000
       449        23  IM1H      DC2           -19.8130433905       -7.9886338082        7.6567532154  IM1H      23              0.0000000000
       450        23  IM1H      H4            -20.3184857982       -7.0601087600        7.9859344396  IM1H      23              0.0000000000
       451        23  IM1H      C3            -20.3522235854       -9.1412811132        7.1788139914  IM1H      23              0.0000000000
       452        23  IM1H      DC3           -20.3566970298       -9.1434337634        7.1687257073  IM1H      23              0.0000000000
       453        23  IM1H      H5            -21.3864060809       -9.4087834803        7.0004939116  IM1H      23              0.0000000000
       454        23  IM1H      C4            -18.1358608974       -9.3727380051        7.3012434640  IM1H      23              0.0000000000
       455        23  IM1H      DC4           -18.1401225522       -9.3522322266        7.2900479577  IM1H      23              0.0000000000
       456        23  IM1H      H6            -17.1266840614       -9.7846030175        7.2958281810  IM1H      23              0.0000000000
       457        23  IM1H      N2            -19.2856218288       -9.9930548547        6.9645417987  IM1H      23              0.0000000000
       458        23  IM1H      DN2           -19.2891585591       -9.9914376110        6.9558441774  IM1H      23              0.0000000000
       459        23  IM1H      H7            -19.3715271350      -10.9486454437        6.6826430499  IM1H      23              0.0000000000
       460        23  IM1H      LPN21         -19.3014194496      -10.2736318599        6.8595323736  IM1H      23              0.0000000000
       461        24  IM1H      C1             16.6000061966       15.7602332509       -5.6164540882  IM1H      24              0.0000000000
       462        24  IM1H      DC1            16.5796909609       15.7567955223       -5.5991228683  IM1H      24              0.0000000000
       463        24  IM1H      H1             16.1346222151       16.2497450260       -6.4985634759  IM1H      24              0.0000000000
       464        24  IM1H      H2             16.9409040694       14.7433663298       -5.9064391002  IM1H      24              0.0000000000
       465        24  IM1H      H3             17.4605046516       16.3687750262       -5.2649710622  IM1H      24              0.0000000000
       466        24  IM1H      N1             15.6100390987       15.6358784927       -4.5360934044  IM1H      24              0.0000000000
       467        24  IM1H      DN1            15.5861493432       15.6320162137       -4.5230337802  IM1H      24              0.0000000000
       468        24  IM1H      C2             14.4033111326       14.9941647147       -4.6797394434  IM1H      24              0.0000000000
       469        24  IM1H      DC2            14.4175063225       15.0007089815       -4.6821308540  IM1H      24              0.0000000000
       470        24  IM1H      H4             14.0931377585       14.5271744881       -5.6063470229  IM1H      24              0.0000000000
       471        24  IM1H      C3             13.7563284210       15.0968656124       -3.4784458936  IM1H      24              0.0000000000
       472        24  IM1H      DC3            13.7617094616       15.0916665390       -3.4872158845  IM1H      24              0.0000000000
       473        24  IM1H      H5             12.7739071612       14.7400237515       -3.1948945675  IM1H      24              0.0000000000
       474        24  IM1H      C4             15.7363534304       16.1257845400       -3.2903039223  IM1H      24              0.0000000000
       475        24  IM1H      DC4            15.7283928192       16.1078260421       -3.3275887466  IM1H      24              0.0000000000
       476        24  IM1H      H6             16.5818012091       16.6892473138       -2.8955536774  IM1H      24              0.0000000000
       477        24  IM1H      N2             14.6001235348       15.8000529670       -2.6357313646  IM1H      24              0.0000000000
       478        24  IM1H      DN2            14.5983183307       15.7924064593       -2.6443541699  IM1H      24              0.0000000000
       479        24  IM1H      H7             14.3758747868       16.0644152073       -1.6977414366  IM1H      24              0.0000000000
       480        24  IM1H      LPN21          14.5443469786       15.8721295557       -2.3499098448  IM1H      24              0.0000000000
       481        25  IM1H      C1             -7.6691264520      -17.3564055411      -14.7174535641  IM1H      25              0.0000000000
       482        25  IM1H      DC1            -7.6582508652      -17.3076420504      -14.7038913708  IM1H      25              0.0000000000
       483        25  IM1H      H1             -8.5024742698      -17.4675627731      -15.4437430977  IM1H      25              0.0000000000
       484        25  IM1H      H2             -8.0548717829      -17.5249232948      -13.6892885447  IM1H      25              0.0000000000
       485        25  IM1H      H3             -6.8801046916      -18.1026936812      -14.9515895792  IM1H      25              0.0000000000
       486        25  IM1H      N1             -7.1198660713      -15.9951828098      -14.8145324730  IM1H      25              0.0000000000
       487        25  IM1H      DN1            -7.1069657307      -15.9545234658      -14.8142882715  IM1H      25              0.0000000000
       488        25  IM1H      C2             -7.8857671645      -14.8545187704      -14.8235026318  IM1H      25              0.0000000000
       489        25  IM1H      DC2            -7.8759059817      -14.8582901204      -14.8198484830  IM1H      25              0.0000000000
       490        25  IM1H      H4             -8.9681253707      -14.8803136617      -14.7965891207  IM1H      25              0.0000000000
       491        25  IM1H      C3             -7.0195994858      -13.7984697168      -14.8834262763  IM1H      25              0.0000000000
       492        25  IM1H      DC3            -7.0239394140      -13.7879827179      -14.8756778042  IM1H      25              0.0000000000
       493        25  IM1H      H5             -7.2299408808      -12.7368075625      -14.9224002127  IM1H      25              0.0000000000
       494        25  IM1H      C4             -5.8160655177      -15.6821551075      -14.8607249656  IM1H      25              0.0000000000
       495        25  IM1H      DC4            -5.8362920586      -15.6826448588      -14.8582232278  IM1H      25              0.0000000000
       496        25  IM1H      H6             -4.9949079488      -16.3988227012      -14.8744292389  IM1H      25              0.0000000000
       497        25  IM1H      N2             -5.7463805867      -14.3352912772      -14.9032276254  IM1H      25              0.0000000000
       498        25  IM1H      DN2            -5.7491953687      -14.3279591252      -14.8967884353  IM1H      25              0.0000000000
       499        25  IM1H      H7             -4.9103826127      -13.7960626393      -15.0049127454  IM1H      25              0.0000000000
       500        25  IM1H      LPN21          -5.4896717210      -14.1805051212      -14.9151357811  IM1H      25              0.0000000000
       501        26  IM1H      C1             -4.7201087535      -29.1393256617        4.7060042823  IM1H      26              0.0000000000
       502        26  IM1H      DC1            -4.7245019071      -29.1291777907        4.6885466308  IM1H      26              0.0000000000
       503        26  IM1H      H1             -5.3952997698      -29.9802286568        4.4389457785  IM1H      26              0.0000000000
       504        26  IM1H      H2             -4.9232809890      -28.8178518648        5.7498896410  IM1H      26              0.0000000000
       505        26  IM1H      H3             -3.6545751573      -29.4372964379        4.6051451102  IM1H      26              0.0000000000
       506        26  IM1H      N1             -5.0088885409      -28.0270472614        3.7977683448  IM1H      26              0.0000000000
       507        26  IM1H      DN1            -5.0121734323      -28.0122744444        3.7816774435  IM1H      26              0.0000000000
       508        26  IM1H      C2             -6.2470095778      -27.4501534147        3.6819618813  IM1H      26              0.0000000000
       509        26  IM1H      DC2            -6.2234008732      -27.4612537946        3.6819862223  IM1H      26              0.0000000000
       510        26  IM1H      H4             -7.0993740664      -27.7586227405        4.2745919966  IM1H      26              0.0000000000
       511        26  IM1H      C3             -6.1281093202      -26.4615126138        2.7494453058  IM1H      26              0.0000000000
       512        26  IM1H      DC3            -6.1353059671      -26.4709019815        2.7559087758  IM1H      26              0.0000000000
       513        26  IM1H      H5             -6.8579251087      -25.7448031143        2.3936568740  IM1H      26              0.0000000000
       514        26  IM1H      C4             -4.1267495466      -27.4234548408        2.9845079891  IM1H      26              0.0000000000
       515        26  IM1H      DC4            -4.1364814713      -27.4481501289        2.9958324913  IM1H      26              0.0000000000
       516        26  IM1H      H6             -3.0562666314      -27.6251133197        2.9457757524  IM1H      26              0.0000000000
       517        26  IM1H      N2             -4.8119326089      -26.4664425252        2.3306749499  IM1H      26              0.0000000000
       518        26  IM1H      DN2            -4.8055295509      -26.4776125991        2.3334870537  IM1H      26              0.0000000000
       519        26  IM1H      H7             -4.4552610454      -25.7854133177        1.6911559007  IM1H      26              0.0000000000
       520        26  IM1H      LPN21          -4.6910735969      -26.2841763405        2.1253163924  IM1H      26              0.0000000000
       521        27  IM1H      C1            -26.9155133294        1.4191776545       17.9618222916  IM1H      27              0.0000000000
       522        27  IM1H      DC1           -26.9053113412        1.4028494154       17.9612139727  IM1H      27              0.0000000000
       523        27  IM1H      H1            -27.0858177161        2.5101119504       18.0850285403  IM1H      27              0.0000000000
       524        27  IM1H      H2            -27.7405413438        0.9719721683       17.3671315910  IM1H      27              0.0000000000
       525        27  IM1H      H3            -25.9394263978        1.2412505812       17.4619050398  IM1H      27              0.0000000000
       526        27  IM1H      N1            -26.9093577103        0.8102257325       19.2982829565  IM1H      27              0.0000000000
       527        27  IM1H      DN1           -26.8889479762        0.7875926925       19.3004861585  IM1H      27              0.0000000000
       528        27  IM1H      C2            -27.9215542799        0.9414395147       20.2183297221  IM1H      27              0.0000000000
       529        27  IM1H      DC2           -27.8812089678        0.8839746679       20.1715633140  IM1H      27              0.0000000000
       530        27  IM1H      H4            -28.7726508669        1.6044295416       20.1236311272  IM1H      27              0.0000000000
       531        27  IM1H      C3            -27.5321494675        0.2415263134       21.3242519318  IM1H      27              0.0000000000
       532        27  IM1H      DC3           -27.5246371788        0.1845688962       21.3095922965  IM1H      27              0.0000000000
       533        27  IM1H      H5            -28.0283562127        0.2033430903       22.2861302544  IM1H      27              0.0000000000
       534        27  IM1H      C4            -25.9124470843        0.0613959863       19.7983175751  IM1H      27              0.0000000000
       535        27  IM1H      DC4           -25.9073864623        0.0548799676       19.7697010791  IM1H      27              0.0000000000
       536        27  IM1H      H6            -24.9541056787       -0.1253827098       19.3137605930  IM1H      27              0.0000000000
       537        27  IM1H      N2            -26.2851803233       -0.2841337317       21.0466178648  IM1H      27              0.0000000000
       538        27  IM1H      DN2           -26.2686930971       -0.3087705838       21.0355485488  IM1H      27              0.0000000000
       539        27  IM1H      H7            -25.6786128282       -0.6187840634       21.7677870747  IM1H      27              0.0000000000
       540        27  IM1H      LPN21         -26.1181103804       -0.4505879151       21.2320380336  IM1H      27              0.0000000000
       541        28  IM1H      C1              7.1705242588      -22.5809169847      -12.5132454996  IM1H      28              0.0000000000
       542        28  IM1H      DC1             7.1670214583      -22.5591282518      -12.5174223541  IM1H      28              0.0000000000
       543        28  IM1H      H1              6.7727754272      -23.2507254823      -13.3053777141  IM1H      28              0.0000000000
       544        28  IM1H      H2              6.6590000592      -22.7838232933      -11.5481066370  IM1H      28              0.0000000000
       545        28  IM1H      H3              8.2636572915      -22.7468620558      -12.4044180852  IM1H      28              0.0000000000
       546        28  IM1H      N1              6.9166911612      -21.1858310704      -12.9026958082  IM1H      28              0.0000000000
       547        28  IM1H      DN1             6.9181201315      -21.1627908817      -12.9083211693  IM1H      28              0.0000000000
       548        28  IM1H      C2              5.6695548941      -20.6426441372      -13.1036928707  IM1H      28              0.0000000000
       549        28  IM1H      DC2             5.7093894503      -20.6409371307      -13.1048056162  IM1H      28              0.0000000000
       550        28  IM1H      H4              4.7436267675      -21.1861146457      -12.9616157408  IM1H      28              0.0000000000
       551        28  IM1H      C3              5.8673916810      -19.3476298676      -13.4969321331  IM1H      28              0.0000000000
       552        28  IM1H      DC3             5.8725160621      -19.3366200326      -13.4924377315  IM1H      28              0.0000000000
       553        28  IM1H      H5              5.1267194818      -18.6029506313      -13.7610278169  IM1H      28              0.0000000000
       554        28  IM1H      C4              7.8711612956      -20.2752454631      -13.1529512318  IM1H      28              0.0000000000
       555        28  IM1H      DC4             7.8572127498      -20.2938012446      -13.1468687593  IM1H      28              0.0000000000
       556        28  IM1H      H6              8.9461302966      -20.4408711088      -13.0814684199  IM1H      28              0.0000000000
       557        28  IM1H      N2              7.2349899785      -19.1449717808      -13.5217156287  IM1H      28              0.0000000000
       558        28  IM1H      DN2             7.2364456691      -19.1412254668      -13.5160344137  IM1H      28              0.0000000000
       559        28  IM1H      H7              7.6780838077      -18.3191234558      -13.8704883379  IM1H      28              0.0000000000
       560        28  IM1H      LPN21           7.3747520158      -18.8903807391      -13.5968819406  IM1H      28              0.0000000000
       561        29  IM1H      C1            -17.8278484918       27.8807278800       -0.2518081690  IM1H      29              0.0000000000
       562        29  IM1H      DC1           -17.8568265127       27.9028036400       -0.2564056121  IM1H      29              0.0000000000
       563        29  IM1H      H1            -17.4338391083       27.8061180167       -1.2879119166  IM1H      29              0.0000000000
       564        29  IM1H      H2            -17.3530412887       28.7381304523        0.2713934652  IM1H      29              0.0000000000
       565        29  IM1H      H3            -18.9343429986       27.9806821776       -0.2515963722  IM1H      29              0.0000000000
       566        29  IM1H      N1            -17.4487628937       26.6555314590        0.4572398486  IM1H      29              0.0000000000
       567        29  IM1H      DN1           -17.4806992584       26.6655057887        0.4597323507  IM1H      29              0.0000000000
       568        29  IM1H      C2            -16.1688031611       26.1619121037        0.5318688584  IM1H      29              0.0000000000
       569        29  IM1H      DC2           -16.2697258624       26.1781426480        0.5551675853  IM1H      29              0.0000000000
       570        29  IM1H      H4            -15.2947902544       26.5646682848        0.0351014103  IM1H      29              0.0000000000
       571        29  IM1H      C3            -16.2363641216       25.0361446635        1.3048600484  IM1H      29              0.0000000000
       572        29  IM1H      DC3           -16.2766408904       25.0397438511        1.3191594459  IM1H      29              0.0000000000
       573        29  IM1H      H5            -15.4215651473       24.3695408655        1.5590863415  IM1H      29              0.0000000000
       574        29  IM1H      C4            -18.2975805369       25.8802412698        1.1536700937  IM1H      29              0.0000000000
       575        29  IM1H      DC4           -18.3201712031       25.9225169091        1.1384924079  IM1H      29              0.0000000000
       576        29  IM1H      H6            -19.3785499246       26.0002607737        1.2257845958  IM1H      29              0.0000000000
       577        29  IM1H      N2            -17.5602113847       24.8804764422        1.6758963528  IM1H      29              0.0000000000
       578        29  IM1H      DN2           -17.5862372482       24.8999844122        1.6795925062  IM1H      29              0.0000000000
       579        29  IM1H      H7            -17.9153917475       24.0408381265        2.0868153335  IM1H      29              0.0000000000
       580        29  IM1H      LPN21         -17.6720532789       24.6602494248        1.8461651155  IM1H      29              0.0000000000
       581        30  IM1H      C1              6.2986782526       17.2123741723      -29.0464866570  IM1H      30              0.0000000000
       582        30  IM1H      DC1             6.3212579894       17.2301233137      -29.0355069907  IM1H      30              0.0000000000
       583        30  IM1H      H1              6.8880643161       16.5447467747      -28.3822436830  IM1H      30              0.0000000000
       584        30  IM1H      H2              6.2963614239       16.8151399272      -30.0840417581  IM1H      30              0.0000000000
       585        30  IM1H      H3              5.2546192340       17.2826153436      -28.6732200718  IM1H      30              0.0000000000
       586        30  IM1H      N1              6.9129035201       18.5499619678      -29.0496567509  IM1H      30              0.0000000000
       587        30  IM1H      DN1             6.9292461183       18.5733081173      -29.0469241497  IM1H      30              0.0000000000
       588        30  IM1H      C2              8.2346321839       18.7984366115      -29.3324286776  IM1H      30              0.0000000000
       589        30  IM1H      DC2             8.2168358102       18.8020334691      -29.3197387212  IM1H      30              0.0000000000
       590        30  IM1H      H4              8.9556054477       18.0186606745      -29.5446456491  IM1H      30              0.0000000000
       591        30  IM1H      C3              8.4212860449       20.1459643957      -29.2152492172  IM1H      30              0.0000000000
       592        30  IM1H      DC3             8.4283268627       20.1518504539      -29.2115739257  IM1H      30              0.0000000000
       593        30  IM1H      H5              9.3329966229       20.7138522509      -29.3537273954  IM1H      30              0.0000000000
       594        30  IM1H      C4              6.2803151460       19.6952791925      -28.7514960493  IM1H      30              0.0000000000
       595        30  IM1H      DC4             6.3032072383       19.6716170387      -28.7457656141  IM1H      30              0.0000000000
       596        30  IM1H      H6              5.2276924937       19.7913175594      -28.4852965304  IM1H      30              0.0000000000
       597        30  IM1H      N2              7.1985191200       20.6795355474      -28.8538743126  IM1H      30              0.0000000000
       598        30  IM1H      DN2             7.2098490515       20.6809699691      -28.8477536393  IM1H      30              0.0000000000
       599        30  IM1H      H7              7.0096700160       21.6552438831      -28.7428371129  IM1H      30              0.0000000000
       600        30  IM1H      LPN21           7.1402575909       20.9696287155      -28.8043612024  IM1H      30              0.0000000000
       601        31  IM1H      C1             -6.4273969785       -6.8019119480      -28.5433345167  IM1H      31              0.0000000000
       602        31  IM1H      DC1            -6.3585723679       -6.7682970436      -28.5719342234  IM1H      31              0.0000000000
       603        31  IM1H      H1             -6.3248366975       -7.4213973446      -27.6267974289  IM1H      31              0.0000000000
       604        31  IM1H      H2             -6.4293155291       -7.4482583653      -29.4469680866  IM1H      31              0.0000000000
       605        31  IM1H      H3             -7.3892905976       -6.2493189153      -28.4823213570  IM1H      31              0.0000000000
       606        31  IM1H      N1             -5.3255320559       -5.8421691124      -28.6148751036  IM1H      31              0.0000000000
       607        31  IM1H      DN1            -5.2697963536       -5.8088093942      -28.6260421635  IM1H      31              0.0000000000
       608        31  IM1H      C2             -3.9934434105       -6.1596824049      -28.7199433584  IM1H      31              0.0000000000
       609        31  IM1H      DC2            -3.9764630756       -6.1363010062      -28.7220179511  IM1H      31              0.0000000000
       610        31  IM1H      H4             -3.6567518235       -7.1890155502      -28.7189180285  IM1H      31              0.0000000000
       611        31  IM1H      C3             -3.3158341205       -4.9735592011      -28.8172873560  IM1H      31              0.0000000000
       612        31  IM1H      DC3            -3.2686911443       -4.9601249724      -28.8125419726  IM1H      31              0.0000000000
       613        31  IM1H      H5             -2.2499271160       -4.8155132313      -28.9256973606  IM1H      31              0.0000000000
       614        31  IM1H      C4             -5.4933962358       -4.5165687550      -28.6332591820  IM1H      31              0.0000000000
       615        31  IM1H      DC4            -5.4581936601       -4.5261700685      -28.6518279680  IM1H      31              0.0000000000
       616        31  IM1H      H6             -6.4550274437       -4.0143066509      -28.5279111932  IM1H      31              0.0000000000
       617        31  IM1H      N2             -4.2706286318       -3.9707444853      -28.7684297074  IM1H      31              0.0000000000
       618        31  IM1H      DN2            -4.2301957471       -3.9700515544      -28.7632531888  IM1H      31              0.0000000000
       619        31  IM1H      H7             -4.1506853937       -2.9936111845      -28.9439977344  IM1H      31              0.0000000000
       620        31  IM1H      LPN21          -4.2196057617       -3.6755730377      -28.7848760830  IM1H      31              0.0000000000
       621        32  IM1H      C1             -7.9261239033       -7.3205144474       25.3761339369  IM1H      32              0.0000000000
       622        32  IM1H      DC1            -7.8371629369       -7.3367796278       25.4213739041  IM1H      32              0.0000000000
       623        32  IM1H      H1             -7.7481124091       -6.8176379318       26.3506841514  IM1H      32              0.0000000000
       624        32  IM1H      H2             -8.8640042057       -7.9141859164       25.4236284247  IM1H      32              0.0000000000
       625        32  IM1H      H3             -8.0395148893       -6.5570269762       24.5770404721  IM1H      32              0.0000000000
       626        32  IM1H      N1             -6.8138716236       -8.2175681111       25.0460406466  IM1H      32              0.0000000000
       627        32  IM1H      DN1            -6.7592230897       -8.2419384075       25.0411670685  IM1H      32              0.0000000000
       628        32  IM1H      C2             -6.3930582220       -9.2533078956       25.8442743024  IM1H      32              0.0000000000
       629        32  IM1H      DC2            -6.3663229551       -9.2330421644       25.8361945202  IM1H      32              0.0000000000
       630        32  IM1H      H4             -6.9472680980       -9.5824729960       26.7145562969  IM1H      32              0.0000000000
       631        32  IM1H      C3             -5.3231107190       -9.8258219626       25.2131288299  IM1H      32              0.0000000000
       632        32  IM1H      DC3            -5.2962705439       -9.8205165619       25.2179616973  IM1H      32              0.0000000000
       633        32  IM1H      H5             -4.7764468453      -10.7178318047       25.4930682009  IM1H      32              0.0000000000
       634        32  IM1H      C4             -6.0527970588       -8.1360843381       23.9439551072  IM1H      32              0.0000000000
       635        32  IM1H      DC4            -6.0206122666       -8.1253780289       23.9700900340  IM1H      32              0.0000000000
       636        32  IM1H      H6             -6.2625311324       -7.4744566186       23.1035026224  IM1H      32              0.0000000000
       637        32  IM1H      N2             -5.1345260543       -9.1216669221       24.0371483689  IM1H      32              0.0000000000
       638        32  IM1H      DN2            -5.1099700469       -9.1231689613       24.0410820754  IM1H      32              0.0000000000
       639        32  IM1H      H7             -4.5519989793       -9.4356435608       23.2874278362  IM1H      32              0.0000000000
       640        32  IM1H      LPN21          -4.9235499833       -9.1752741642       23.8307134857  IM1H      32              0.0000000000
       641        33  IM1H      C1              0.9465404437       -1.9205542972      -28.3025097343  IM1H      33              0.0000000000
       642        33  IM1H      DC1             0.9413774459       -1.8887804718      -28.2839203070  IM1H      33              0.0000000000
       643        33  IM1H      H1             -0.0865087500       -2.2942286760      -28.1366850578  IM1H      33              0.0000000000
       644        33  IM1H      H2              1.6747303443       -2.7200462401      -28.0478077482  IM1H      33              0.0000000000
       645        33  IM1H      H3              1.0671517292       -1.6330744731      -29.3688723692  IM1H      33              0.0000000000
       646        33  IM1H      N1              1.1856393258       -0.7629671368      -27.4230023120  IM1H      33              0.0000000000
       647        33  IM1H      DN1             1.1867764814       -0.7343645710      -27.4071506200  IM1H      33              0.0000000000
       648        33  IM1H      C2              1.2102567431       -0.8544346084      -26.0548830644  IM1H      33              0.0000000000
       649        33  IM1H      DC2             1.1975185558       -0.8324237242      -26.0719811179  IM1H      33              0.0000000000
       650        33  IM1H      H4              1.0853604757       -1.7968974585      -25.5361792003  IM1H      33              0.0000000000
       651        33  IM1H      C3              1.4435601561        0.4088948460      -25.5779344318  IM1H      33              0.0000000000
       652        33  IM1H      DC3             1.4248672797        0.4148748269      -25.5707282835  IM1H      33              0.0000000000
       653        33  IM1H      H5              1.5499674602        0.7481909419      -24.5549756619  IM1H      33              0.0000000000
       654        33  IM1H      C4              1.3902576109        0.5085261455      -27.8086681672  IM1H      33              0.0000000000
       655        33  IM1H      DC4             1.3808149584        0.4893999479      -27.8029956413  IM1H      33              0.0000000000
       656        33  IM1H      H6              1.4496064552        0.8617469079      -28.8381402686  IM1H      33              0.0000000000
       657        33  IM1H      N2              1.5514779573        1.2332132512      -26.6817272566  IM1H      33              0.0000000000
       658        33  IM1H      DN2             1.5442588481        1.2332708943      -26.6792881040  IM1H      33              0.0000000000
       659        33  IM1H      H7              1.7785567192        2.2060591821      -26.6369385236  IM1H      33              0.0000000000
       660        33  IM1H      LPN21           1.6028262113        1.5287539605      -26.6773630890  IM1H      33              0.0000000000
       661        34  IM1H      C1             -5.2526437830      -15.3087383728        4.9258306721  IM1H      34              0.0000000000
       662        34  IM1H      DC1            -5.2738306587      -15.3052756916        4.9195889956  IM1H      34              0.0000000000
       663        34  IM1H      H1             -4.5076288405      -14.7504683013        5.5321377418  IM1H      34              0.0000000000
       664        34  IM1H      H2             -5.6615705177      -14.6458564716        4.1335633481  IM1H      34              0.0000000000
       665        34  IM1H      H3             -4.7573789853      -16.1799759260        4.4462695117  IM1H      34              0.0000000000
       666        34  IM1H      N1             -6.3259595490      -15.7742945664        5.8164658952  IM1H      34              0.0000000000
       667        34  IM1H      DN1            -6.3366853977      -15.7794327622        5.8158509546  IM1H      34              0.0000000000
       668        34  IM1H      C2             -7.0706214224      -14.9467793324        6.6209136536  IM1H      34              0.0000000000
       669        34  IM1H      DC2            -7.0474789716      -14.9679799920        6.5923378756  IM1H      34              0.0000000000
       670        34  IM1H      H4             -6.9743430806      -13.8682082940        6.6383491337  IM1H      34              0.0000000000
       671        34  IM1H      C3             -7.9109425464      -15.7466049835        7.3448547554  IM1H      34              0.0000000000
       672        34  IM1H      DC3            -7.9018490197      -15.7516270919        7.3156556116  IM1H      34              0.0000000000
       673        34  IM1H      H5             -8.6250591214      -15.4635568440        8.1082748693  IM1H      34              0.0000000000
       674        34  IM1H      C4             -6.6747576339      -17.0561032540        6.0154131198  IM1H      34              0.0000000000
       675        34  IM1H      DC4            -6.6630839361      -17.0244261497        5.9879244894  IM1H      34              0.0000000000
       676        34  IM1H      H6             -6.2075837079      -17.9305847949        5.5624997093  IM1H      34              0.0000000000
       677        34  IM1H      N2             -7.6452565609      -17.0473626570        6.9541187500  IM1H      34              0.0000000000
       678        34  IM1H      DN2            -7.6411042993      -17.0448468964        6.9359579938  IM1H      34              0.0000000000
       679        34  IM1H      H7             -8.0320887406      -17.8501039970        7.4079548503  IM1H      34              0.0000000000
       680        34  IM1H      LPN21          -7.7798653292      -17.2942023204        7.0587641515  IM1H      34              0.0000000000
       681        35  IM1H      C1             -1.5966679574       20.2604659882        7.4854785663  IM1H      35              0.0000000000
       682        35  IM1H      DC1            -1.5794214268       20.2766506362        7.4688452075  IM1H      35              0.0000000000
       683        35  IM1H      H1             -0.5009734853       20.1434539133        7.6271923557  IM1H      35              0.0000000000
       684        35  IM1H      H2             -2.1266198862       19.4658019536        8.0529122865  IM1H      35              0.0000000000
       685        35  IM1H      H3             -1.9417001463       21.2609235347        7.8236478831  IM1H      35              0.0000000000
       686        35  IM1H      N1             -1.9081603627       20.0860968004        6.0655924217  IM1H      35              0.0000000000
       687        35  IM1H      DN1            -1.9078666206       20.0939976048        6.0460338063  IM1H      35              0.0000000000
       688        35  IM1H      C2             -1.7228380320       18.9079991002        5.3909642167  IM1H      35              0.0000000000
       689        35  IM1H      DC2            -1.7208217754       18.9511594362        5.3972543415  IM1H      35              0.0000000000
       690        35  IM1H      H4             -1.4106211432       17.9896634284        5.8726998374  IM1H      35              0.0000000000
       691        35  IM1H      C3             -2.1010120602       19.1308496366        4.0992550956  IM1H      35              0.0000000000
       692        35  IM1H      DC3            -2.0856347080       19.1406304794        4.0988127262  IM1H      35              0.0000000000
       693        35  IM1H      H5             -2.1573725015       18.4315152576        3.2742436248  IM1H      35              0.0000000000
       694        35  IM1H      C4             -2.3938520733       21.0284097898        5.2431149073  IM1H      35              0.0000000000
       695        35  IM1H      DC4            -2.3721541176       21.0284657978        5.2707567190  IM1H      35              0.0000000000
       696        35  IM1H      H6             -2.6810263369       22.0455394491        5.5097198555  IM1H      35              0.0000000000
       697        35  IM1H      N2             -2.5121519319       20.4490101766        4.0338930105  IM1H      35              0.0000000000
       698        35  IM1H      DN2            -2.5031568626       20.4537412661        4.0453965570  IM1H      35              0.0000000000
       699        35  IM1H      H7             -2.9441716130       20.8452937452        3.2237582511  IM1H      35              0.0000000000
       700        35  IM1H      LPN21          -2.6136190728       20.5906286139        3.7896623049  IM1H      35              0.0000000000
       701        36  IM1H      C1             -5.7115828986      -25.7516460285       29.1936538595  IM1H      36              0.0000000000
       702        36  IM1H      DC1            -5.6729230616      -25.7552925456       29.2010015563  IM1H      36              0.0000000000
       703        36  IM1H      H1             -6.6163240545      -25.4834259539       28.6072901214  IM1H      36              0.0000000000
       704        36  IM1H      H2             -5.3528224392      -24.8576555055       29.7471815261  IM1H      36              0.0000000000
       705        36  IM1H      H3             -5.9534427272      -26.5729493503       29.9016691696  IM1H      36              0.0000000000
       706        36  IM1H      N1             -4.6663736792      -26.1872176291       28.2590341694  IM1H      36              0.0000000000
       707        36  IM1H      DN1            -4.6306790730      -26.2037762067       28.2519193527  IM1H      36              0.0000000000
       708        36  IM1H      C2             -4.2200889385      -25.4362174473       27.2008299869  IM1H      36              0.0000000000
       709        36  IM1H      DC2            -4.1947940409      -25.4589670588       27.2311571718  IM1H      36              0.0000000000
       710        36  IM1H      H4             -4.7186181500      -24.5248279696       26.8946815829  IM1H      36              0.0000000000
       711        36  IM1H      C3             -3.2072005685      -26.1448573953       26.6154190817  IM1H      36              0.0000000000
       712        36  IM1H      DC3            -3.2010476069      -26.1529702265       26.6244942237  IM1H      36              0.0000000000
       713        36  IM1H      H5             -2.6326937914      -25.9191832876       25.7255302345  IM1H      36              0.0000000000
       714        36  IM1H      C4             -3.9778224475      -27.3355512043       28.3425226261  IM1H      36              0.0000000000
       715        36  IM1H      DC4            -3.9754116726      -27.3283062654       28.3598043134  IM1H      36              0.0000000000
       716        36  IM1H      H6             -4.1895990656      -28.1415297725       29.0451243708  IM1H      36              0.0000000000
       717        36  IM1H      N2             -3.0811664442      -27.3192301992       27.3349570291  IM1H      36              0.0000000000
       718        36  IM1H      DN2            -3.0754756311      -27.3259286971       27.3436659551  IM1H      36              0.0000000000
       719        36  IM1H      H7             -2.5320732796      -28.0910782637       27.0144148917  IM1H      36              0.0000000000
       720        36  IM1H      LPN21          -2.8859663534      -27.5403150171       27.2800168085  IM1H      36              0.0000000000
       721        37  IM1H      C1              8.5999578962      -11.2724154984      -23.5442606662  IM1H      37              0.0000000000
       722        37  IM1H      DC1             8.6043554849      -11.2636275016      -23.5286822572  IM1H      37              0.0000000000
       723        37  IM1H      H1              7.6774972966      -11.8624066857      -23.3563834648  IM1H      37              0.0000000000
       724        37  IM1H      H2              8.7099213795      -11.1053707217      -24.6371124749  IM1H      37              0.0000000000
       725        37  IM1H      H3              8.5529371776      -10.2985788678      -23.0115766427  IM1H      37              0.0000000000
       726        37  IM1H      N1              9.7571993053      -12.0460522012      -23.0638144363  IM1H      37              0.0000000000
       727        37  IM1H      DN1             9.7650012241      -12.0479677441      -23.0515851868  IM1H      37              0.0000000000
       728        37  IM1H      C2             10.0573278140      -13.3129700069      -23.4941284478  IM1H      37              0.0000000000
       729        37  IM1H      DC2            10.0531058332      -13.2794442979      -23.4675402809  IM1H      37              0.0000000000
       730        37  IM1H      H4              9.4859720256      -13.8276223462      -24.2567387892  IM1H      37              0.0000000000
       731        37  IM1H      C3             11.1738008149      -13.7087592475      -22.8112811273  IM1H      37              0.0000000000
       732        37  IM1H      DC3            11.1726236056      -13.7003702989      -22.8138164742  IM1H      37              0.0000000000
       733        37  IM1H      H5             11.7146912689      -14.6452716898      -22.8684734538  IM1H      37              0.0000000000
       734        37  IM1H      C4             10.6494215290      -11.6436387437      -22.1409604906  IM1H      37              0.0000000000
       735        37  IM1H      DC4            10.6064459612      -11.6361440409      -22.1462346250  IM1H      37              0.0000000000
       736        37  IM1H      H6             10.7041560277      -10.6682003106      -21.6576138263  IM1H      37              0.0000000000
       737        37  IM1H      N2             11.5210817033      -12.6587788863      -21.9815788392  IM1H      37              0.0000000000
       738        37  IM1H      DN2            11.5010319968      -12.6560536697      -21.9805634091  IM1H      37              0.0000000000
       739        37  IM1H      H7             12.3958763787      -12.5926007079      -21.5016260033  IM1H      37              0.0000000000
       740        37  IM1H      LPN21          11.7539672161      -12.6520736845      -21.7925831297  IM1H      37              0.0000000000
       741        38  IM1H      C1             15.4288992038      -11.3499862164        2.9857342317  IM1H      38              0.0000000000
       742        38  IM1H      DC1            15.4232908547      -11.3478445660        2.9851607018  IM1H      38              0.0000000000
       743        38  IM1H      H1             15.1416150260      -11.3384313439        4.0588862637  IM1H      38              0.0000000000
       744        38  IM1H      H2             16.0445273631      -12.2488660605        2.7681612670  IM1H      38              0.0000000000
       745        38  IM1H      H3             14.5183977462      -11.3496949364        2.3490961800  IM1H      38              0.0000000000
       746        38  IM1H      N1             16.2353434054      -10.1539040576        2.6955360309  IM1H      38              0.0000000000
       747        38  IM1H      DN1            16.2303900157      -10.1507931061        2.6920468243  IM1H      38              0.0000000000
       748        38  IM1H      C2             17.4251640629       -9.8676266681        3.3151761074  IM1H      38              0.0000000000
       749        38  IM1H      DC2            17.3788698731       -9.8921347953        3.3124699699  IM1H      38              0.0000000000
       750        38  IM1H      H4             17.8913657128      -10.4940486018        4.0656030410  IM1H      38              0.0000000000
       751        38  IM1H      C3             17.9378118808       -8.7624639424        2.6948212821  IM1H      38              0.0000000000
       752        38  IM1H      DC3            17.8782888985       -8.7698812247        2.7276642001  IM1H      38              0.0000000000
       753        38  IM1H      H5             18.9213864768       -8.3163185397        2.7749729742  IM1H      38              0.0000000000
       754        38  IM1H      C4             15.9809860858       -9.2492576310        1.7355207869  IM1H      38              0.0000000000
       755        38  IM1H      DC4            15.9578566248       -9.2892516091        1.7566568501  IM1H      38              0.0000000000
       756        38  IM1H      H6             15.1163853419       -9.2235120758        1.0722691605  IM1H      38              0.0000000000
       757        38  IM1H      N2             17.0265202115       -8.3966777119        1.7273451327  IM1H      38              0.0000000000
       758        38  IM1H      DN2            16.9901331977       -8.4011931926        1.7327945301  IM1H      38              0.0000000000
       759        38  IM1H      H7             17.2485363362       -7.7084236644        1.0366822580  IM1H      38              0.0000000000
       760        38  IM1H      LPN21          17.0521807999       -8.1633806446        1.5404922156  IM1H      38              0.0000000000
       761        39  IM1H      C1             16.4729143836       27.1380608620       25.9753400964  IM1H      39              0.0000000000
       762        39  IM1H      DC1            16.4481902314       27.1365592653       25.9730202345  IM1H      39              0.0000000000
       763        39  IM1H      H1             16.4634737835       28.0955319958       26.5387945354  IM1H      39              0.0000000000
       764        39  IM1H      H2             17.1906730962       27.2083247289       25.1302327540  IM1H      39              0.0000000000
       765        39  IM1H      H3             16.7665213003       26.3043754123       26.6484556507  IM1H      39              0.0000000000
       766        39  IM1H      N1             15.1337610563       26.8860684575       25.4210529824  IM1H      39              0.0000000000
       767        39  IM1H      DN1            15.1041984147       26.8834146949       25.4199842146  IM1H      39              0.0000000000
       768        39  IM1H      C2             14.5079519336       27.7044182287       24.5122790545  IM1H      39              0.0000000000
       769        39  IM1H      DC2            14.5034880959       27.6947665325       24.5386966845  IM1H      39              0.0000000000
       770        39  IM1H      H4             14.9756025370       28.5913043917       24.1028589194  IM1H      39              0.0000000000
       771        39  IM1H      C3             13.3114256168       27.1143047575       24.2094594413  IM1H      39              0.0000000000
       772        39  IM1H      DC3            13.3007819959       27.1240020314       24.2291173049  IM1H      39              0.0000000000
       773        39  IM1H      H5             12.5594397257       27.4176712899       23.4915632325  IM1H      39              0.0000000000
       774        39  IM1H      C4             14.3688481248       25.8171602577       25.6916689484  IM1H      39              0.0000000000
       775        39  IM1H      DC4            14.3746492377       25.8394127178       25.7073239912  IM1H      39              0.0000000000
       776        39  IM1H      H6             14.6536126066       24.9837528999       26.3338849291  IM1H      39              0.0000000000
       777        39  IM1H      N2             13.2510548575       25.9454358778       24.9456423683  IM1H      39              0.0000000000
       778        39  IM1H      DN2            13.2408177592       25.9517554050       24.9607162776  IM1H      39              0.0000000000
       779        39  IM1H      H7             12.5928722018       25.2163096360       24.7581043314  IM1H      39              0.0000000000
       780        39  IM1H      LPN21          13.0262318813       25.7468125423       24.9437984675  IM1H      39              0.0000000000
       781        40  IM1H      C1             14.8626862177       16.4153401993      -26.7590540951  IM1H      40              0.0000000000
       782        40  IM1H      DC1            14.8513584941       16.4351969452      -26.7583198507  IM1H      40              0.0000000000
       783        40  IM1H      H1             14.0974400989       15.7765498588      -27.2496315900  IM1H      40              0.0000000000
       784        40  IM1H      H2             14.4254736705       16.9080667770      -25.8644107530  IM1H      40              0.0000000000
       785        40  IM1H      H3             15.7343671729       15.7901584140      -26.4698464739  IM1H      40              0.0000000000
       786        40  IM1H      N1             15.3003163858       17.4472894594      -27.7119403567  IM1H      40              0.0000000000
       787        40  IM1H      DN1            15.2965773970       17.4727227336      -27.7173436190  IM1H      40              0.0000000000
       788        40  IM1H      C2             14.4417586920       18.2589473199      -28.4074052166  IM1H      40              0.0000000000
       789        40  IM1H      DC2            14.4370212012       18.2657079405      -28.3783159874  IM1H      40              0.0000000000
       790        40  IM1H      H4             13.3685664892       18.1137402775      -28.4153052589  IM1H      40              0.0000000000
       791        40  IM1H      C3             15.2231580174       19.1038362068      -29.1473086007  IM1H      40              0.0000000000
       792        40  IM1H      DC3            15.2063850438       19.1232941578      -29.1315095775  IM1H      40              0.0000000000
       793        40  IM1H      H5             14.9295874523       19.8440513388      -29.8813296370  IM1H      40              0.0000000000
       794        40  IM1H      C4             16.5753211619       17.7471041566      -28.0110848460  IM1H      40              0.0000000000
       795        40  IM1H      DC4            16.5339136373       17.7412252401      -27.9982017824  IM1H      40              0.0000000000
       796        40  IM1H      H6             17.4677548061       17.2412308775      -27.6426361845  IM1H      40              0.0000000000
       797        40  IM1H      N2             16.5337661952       18.7597155412      -28.8966058759  IM1H      40              0.0000000000
       798        40  IM1H      DN2            16.5192080514       18.7649543809      -28.8930761432  IM1H      40              0.0000000000
       799        40  IM1H      H7             17.3272157118       19.1502422705      -29.3634321159  IM1H      40              0.0000000000
       800        40  IM1H      LPN21          16.7765142988       18.8875376932      -29.0179930896  IM1H      40              0.0000000000
       801        41  IM1H      C1            -16.3962565434       -4.8521749963       -0.5874713633  IM1H      41              0.0000000000
       802        41  IM1H      DC1           -16.4057821277       -4.8807537484       -0.5663705709  IM1H      41              0.0000000000
       803        41  IM1H      H1            -16.4805492502       -3.8816907004       -0.0532654376  IM1H      41              0.0000000000
       804        41  IM1H      H2            -16.9469233971       -4.7745928185       -1.5492759294  IM1H      41              0.0000000000
       805        41  IM1H      H3            -15.3289953999       -5.0978495592       -0.7743367192  IM1H      41              0.0000000000
       806        41  IM1H      N1            -17.0319722666       -5.9048996907        0.2028960305  IM1H      41              0.0000000000
       807        41  IM1H      DN1           -17.0314477379       -5.9378511991        0.2197435540  IM1H      41              0.0000000000
       808        41  IM1H      C2            -18.3180159101       -5.8479344702        0.6771426599  IM1H      41              0.0000000000
       809        41  IM1H      DC2           -18.2631382871       -5.8695373685        0.6750562807  IM1H      41              0.0000000000
       810        41  IM1H      H4            -18.9750626806       -4.9921316002        0.5834410638  IM1H      41              0.0000000000
       811        41  IM1H      C3            -18.6018038644       -7.0792321271        1.1899902982  IM1H      41              0.0000000000
       812        41  IM1H      DC3           -18.5791431532       -7.0985136974        1.2004378542  IM1H      41              0.0000000000
       813        41  IM1H      H5            -19.5409797053       -7.4164830565        1.6108222723  IM1H      41              0.0000000000
       814        41  IM1H      C4            -16.5122655255       -7.1218019101        0.4046046054  IM1H      41              0.0000000000
       815        41  IM1H      DC4           -16.4849991612       -7.1096608058        0.4099454181  IM1H      41              0.0000000000
       816        41  IM1H      H6            -15.5476848783       -7.4628194491        0.0285843757  IM1H      41              0.0000000000
       817        41  IM1H      N2            -17.4748815112       -7.8502350718        1.0003976293  IM1H      41              0.0000000000
       818        41  IM1H      DN2           -17.4590752087       -7.8495097300        1.0041701911  IM1H      41              0.0000000000
       819        41  IM1H      H7            -17.4223490935       -8.8164180652        1.2528471655  IM1H      41              0.0000000000
       820        41  IM1H      LPN21         -17.4432786885       -8.1381915447        1.0783869319  IM1H      41              0.0000000000
       821        42  IM1H      C1             12.4035271970       11.3953670623        9.6620155377  IM1H      42              0.0000000000
       822        42  IM1H      DC1            12.3878822910       11.3581723724        9.6728586924  IM1H      42              0.0000000000
       823        42  IM1H      H1             13.1723473906       11.0412295185        8.9424162669  IM1H      42              0.0000000000
       824        42  IM1H      H2             12.8789593983       11.6197464609       10.6407591750  IM1H      42              0.0000000000
       825        42  IM1H      H3             11.9245996631       12.3168143492        9.2671936595  IM1H      42              0.0000000000
       826        42  IM1H      N1             11.3912359208       10.3501781750        9.8509907584  IM1H      42              0.0000000000
       827        42  IM1H      DN1            11.3837273989       10.3201523574        9.8601918418  IM1H      42              0.0000000000
       828        42  IM1H      C2             11.6596339442        9.0864764665       10.3198391489  IM1H      42              0.0000000000
       829        42  IM1H      DC2            11.6660253791        9.0998881430       10.3183887907  IM1H      42              0.0000000000
       830        42  IM1H      H4             12.6587039138        8.7284161600       10.5355728106  IM1H      42              0.0000000000
       831        42  IM1H      C3             10.4552801244        8.4501253262       10.4449556166  IM1H      42              0.0000000000
       832        42  IM1H      DC3            10.4701737109        8.4468582272       10.4506885660  IM1H      42              0.0000000000
       833        42  IM1H      H5             10.2422857849        7.4382948204       10.7670137475  IM1H      42              0.0000000000
       834        42  IM1H      C4             10.0702858586       10.5189538431        9.6932264444  IM1H      42              0.0000000000
       835        42  IM1H      DC4            10.1107134384       10.5180471401        9.7157006233  IM1H      42              0.0000000000
       836        42  IM1H      H6              9.5871353229       11.4075822520        9.2870182333  IM1H      42              0.0000000000
       837        42  IM1H      N2              9.4879246507        9.3535922289       10.0525171849  IM1H      42              0.0000000000
       838        42  IM1H      DN2             9.5014497736        9.3490870496       10.0606679031  IM1H      42              0.0000000000
       839        42  IM1H      H7              8.5176875189        9.1303280566        9.9587460937  IM1H      42              0.0000000000
       840        42  IM1H      LPN21           9.1921768484        9.3036622805       10.0461738651  IM1H      42              0.0000000000
       841        43  IM1H      C1            -20.7503032178       -7.7053355188      -15.5688467172  IM1H      43              0.0000000000
       842        43  IM1H      DC1           -20.8080502966       -7.7195967787      -15.5393812476  IM1H      43              0.0000000000
       843        43  IM1H      H1            -20.8100333649       -8.2839839778      -16.5153768390  IM1H      43              0.0000000000
       844        43  IM1H      H2            -20.0715482351       -8.2192089353      -14.8550212588  IM1H      43              0.0000000000
       845        43  IM1H      H3            -20.3416308728       -6.6994842073      -15.8045818528  IM1H      43              0.0000000000
       846        43  IM1H      N1            -22.0931544037       -7.5792701370      -14.9813266684  IM1H      43              0.0000000000
       847        43  IM1H      DN1           -22.1337151835       -7.5897663862      -14.9564029467  IM1H      43              0.0000000000
       848        43  IM1H      C2            -22.9356235896       -8.6306595568      -14.7035489508  IM1H      43              0.0000000000
       849        43  IM1H      DC2           -22.9416458570       -8.6237387512      -14.6930403134  IM1H      43              0.0000000000
       850        43  IM1H      H4            -22.6550933186       -9.6627314753      -14.8738995366  IM1H      43              0.0000000000
       851        43  IM1H      C3            -24.1142833210       -8.0855024073      -14.2708698849  IM1H      43              0.0000000000
       852        43  IM1H      DC3           -24.1312328726       -8.1014876832      -14.2482295235  IM1H      43              0.0000000000
       853        43  IM1H      H5            -25.0418230454       -8.5813170127      -14.0125543072  IM1H      43              0.0000000000
       854        43  IM1H      C4            -22.7021436066       -6.4118949109      -14.7222332832  IM1H      43              0.0000000000
       855        43  IM1H      DC4           -22.7000130176       -6.4429476435      -14.7001915380  IM1H      43              0.0000000000
       856        43  IM1H      H6            -22.2900603752       -5.4295594038      -14.9531106571  IM1H      43              0.0000000000
       857        43  IM1H      N2            -23.9456935422       -6.7125113476      -14.2925609395  IM1H      43              0.0000000000
       858        43  IM1H      DN2           -23.9606418795       -6.7274580152      -14.2766038034  IM1H      43              0.0000000000
       859        43  IM1H      H7            -24.6768845860       -6.0397130709      -14.1798571850  IM1H      43              0.0000000000
       860        43  IM1H      LPN21         -24.1507717376       -6.5078542011      -14.2147253037  IM1H      43              0.0000000000
       861        44  IM1H      C1             12.4942995646       -0.6490652311      -15.1036231420  IM1H      44              0.0000000000
       862        44  IM1H      DC1            12.5273080487       -0.6438939851      -15.0885429195  IM1H      44              0.0000000000
       863        44  IM1H      H1             11.9592136034       -0.8962680102      -16.0453740653  IM1H      44              0.0000000000
       864        44  IM1H      H2             11.7870431463       -0.1997327332      -14.3740961258  IM1H      44              0.0000000000
       865        44  IM1H      H3             12.9552801323       -1.5703671255      -14.6876655294  IM1H      44              0.0000000000
       866        44  IM1H      N1             13.5175162084        0.3410003092      -15.4285684839  IM1H      44              0.0000000000
       867        44  IM1H      DN1            13.5566698634        0.3571223080      -15.4151753673  IM1H      44              0.0000000000
       868        44  IM1H      C2             13.2966492192        1.5025969389      -16.1181737843  IM1H      44              0.0000000000
       869        44  IM1H      DC2            13.3336151610        1.4842936630      -16.1006668715  IM1H      44              0.0000000000
       870        44  IM1H      H4             12.3009238713        1.8210951640      -16.4009792163  IM1H      44              0.0000000000
       871        44  IM1H      C3             14.5185594107        2.0809975112      -16.3115081135  IM1H      44              0.0000000000
       872        44  IM1H      DC3            14.5351877923        2.0787940146      -16.2972302165  IM1H      44              0.0000000000
       873        44  IM1H      H5             14.7614826234        3.0151942888      -16.8025821346  IM1H      44              0.0000000000
       874        44  IM1H      C4             14.8250568371        0.1740738889      -15.1910121710  IM1H      44              0.0000000000
       875        44  IM1H      DC4            14.8207670749        0.1710152429      -15.1576943286  IM1H      44              0.0000000000
       876        44  IM1H      H6             15.2618107008       -0.7370481125      -14.7821078289  IM1H      44              0.0000000000
       877        44  IM1H      N2             15.4500825927        1.2308555032      -15.7438499095  IM1H      44              0.0000000000
       878        44  IM1H      DN2            15.4576007708        1.2260001329      -15.7266445683  IM1H      44              0.0000000000
       879        44  IM1H      H7             16.4324206464        1.3068609599      -15.9148327122  IM1H      44              0.0000000000
       880        44  IM1H      LPN21          15.7474659112        1.2702889325      -15.7409921904  IM1H      44              0.0000000000
       881        45  IM1H      C1             19.6480637104       -4.0111121246       -6.9438588972  IM1H      45              0.0000000000
       882        45  IM1H      DC1            19.6197921602       -3.9970307859       -6.9351718416  IM1H      45              0.0000000000
       883        45  IM1H      H1             20.2751912796       -3.2608782510       -7.4712877065  IM1H      45              0.0000000000
       884        45  IM1H      H2             18.7602809782       -4.2786389165       -7.5558983055  IM1H      45              0.0000000000
       885        45  IM1H      H3             20.2564994945       -4.9190608701       -6.7444698997  IM1H      45              0.0000000000
       886        45  IM1H      N1             19.1973616169       -3.4431919901       -5.6653276001  IM1H      45              0.0000000000
       887        45  IM1H      DN1            19.1795687397       -3.4191473107       -5.6568842882  IM1H      45              0.0000000000
       888        45  IM1H      C2             18.4109698562       -2.3214901512       -5.5507249124  IM1H      45              0.0000000000
       889        45  IM1H      DC2            18.4055543432       -2.3237975675       -5.5650302787  IM1H      45              0.0000000000
       890        45  IM1H      H4             18.1075923420       -1.7362425601       -6.4099899129  IM1H      45              0.0000000000
       891        45  IM1H      C3             18.1958333726       -2.1275822244       -4.2140578973  IM1H      45              0.0000000000
       892        45  IM1H      DC3            18.1806774183       -2.1112812012       -4.2289177996  IM1H      45              0.0000000000
       893        45  IM1H      H5             17.6519133814       -1.3438430799       -3.7014245035  IM1H      45              0.0000000000
       894        45  IM1H      C4             19.4849937008       -3.9410898678       -4.4536359204  IM1H      45              0.0000000000
       895        45  IM1H      DC4            19.4548387275       -3.9140043743       -4.4992112173  IM1H      45              0.0000000000
       896        45  IM1H      H6             20.1420029067       -4.7848753582       -4.2427687829  IM1H      45              0.0000000000
       897        45  IM1H      N2             18.8667847448       -3.1432369814       -3.5581848466  IM1H      45              0.0000000000
       898        45  IM1H      DN2            18.8562531769       -3.1274933937       -3.5682564949  IM1H      45              0.0000000000
       899        45  IM1H      H7             18.8929730602       -3.2707560105       -2.5666945192  IM1H      45              0.0000000000
       900        45  IM1H      LPN21          18.8769095794       -3.1849657638       -3.2612737547  IM1H      45              0.0000000000
       901        46  IM1H      C1            -18.9566853861        7.8965094151      -18.4631591735  IM1H      46              0.0000000000
       902        46  IM1H      DC1           -18.9581226328        7.8763375551      -18.5282340467  IM1H      46              0.0000000000
       903        46  IM1H      H1            -20.0100435410        7.6661920641      -18.7309492358  IM1H      46              0.0000000000
       904        46  IM1H      H2            -18.9177377044        8.8428366181      -17.8824106018  IM1H      46              0.0000000000
       905        46  IM1H      H3            -18.5297256375        7.0832540800      -17.8381454673  IM1H      46              0.0000000000
       906        46  IM1H      N1            -18.1620449416        8.0485138331      -19.6882319610  IM1H      46              0.0000000000
       907        46  IM1H      DN1           -18.1412600544        8.0396165530      -19.7235841129  IM1H      46              0.0000000000
       908        46  IM1H      C2            -18.4527032301        8.9294931238      -20.6981039765  IM1H      46              0.0000000000
       909        46  IM1H      DC2           -18.4434977631        8.9014469767      -20.6975431670  IM1H      46              0.0000000000
       910        46  IM1H      H4            -19.3014801795        9.6012150368      -20.6626587818  IM1H      46              0.0000000000
       911        46  IM1H      C3            -17.4479452680        8.8172177135      -21.6203122436  IM1H      46              0.0000000000
       912        46  IM1H      DC3           -17.4476148729        8.8011686136      -21.6264917096  IM1H      46              0.0000000000
       913        46  IM1H      H5            -17.2886284520        9.3894572524      -22.5258778481  IM1H      46              0.0000000000
       914        46  IM1H      C4            -17.0254951019        7.3941420868      -19.9553525752  IM1H      46              0.0000000000
       915        46  IM1H      DC4           -17.0309113131        7.3918128837      -19.9463120645  IM1H      46              0.0000000000
       916        46  IM1H      H6            -16.5700965232        6.6390881537      -19.3145673595  IM1H      46              0.0000000000
       917        46  IM1H      N2            -16.5839118303        7.8531549036      -21.1457039006  IM1H      46              0.0000000000
       918        46  IM1H      DN2           -16.5744756001        7.8476576227      -21.1498678205  IM1H      46              0.0000000000
       919        46  IM1H      H7            -15.7341754913        7.5922475957      -21.6038256429  IM1H      46              0.0000000000
       920        46  IM1H      LPN21         -16.3347804432        7.7567541698      -21.2822339355  IM1H      46              0.0000000000
       921        47  IM1H      C1             10.2316228746       28.0665277651       26.3953182724  IM1H      47              0.0000000000
       922        47  IM1H      DC1            10.2555088698       28.0491668699       26.4140872439  IM1H      47              0.0000000000
       923        47  IM1H      H1             11.1520728962       28.5923422511       26.7279019253  IM1H      47              0.0000000000
       924        47  IM1H      H2              9.3430723124       28.7185112622       26.5357334381  IM1H      47              0.0000000000
       925        47  IM1H      H3             10.3078049920       27.7857506479       25.3230862567  IM1H      47              0.0000000000
       926        47  IM1H      N1             10.0557398507       26.8549826130       27.2065460187  IM1H      47              0.0000000000
       927        47  IM1H      DN1            10.0608882351       26.8341253842       27.2229090426  IM1H      47              0.0000000000
       928        47  IM1H      C2              9.9674326039       26.8446462538       28.5784620226  IM1H      47              0.0000000000
       929        47  IM1H      DC2             9.9754587799       26.8322929169       28.5554671530  IM1H      47              0.0000000000
       930        47  IM1H      H4              9.9795344345       27.7440732360       29.1815985323  IM1H      47              0.0000000000
       931        47  IM1H      C3              9.8014513405       25.5387651950       28.9492817692  IM1H      47              0.0000000000
       932        47  IM1H      DC3             9.8078930257       25.5313246153       28.9560904280  IM1H      47              0.0000000000
       933        47  IM1H      H5              9.6613440171       25.1331086499       29.9436165746  IM1H      47              0.0000000000
       934        47  IM1H      C4              9.9447073489       25.6095084738       26.7180887557  IM1H      47              0.0000000000
       935        47  IM1H      DC4             9.9785956336       25.6334031491       26.7350734534  IM1H      47              0.0000000000
       936        47  IM1H      H6              9.8796338883       25.3426715252       25.6632601025  IM1H      47              0.0000000000
       937        47  IM1H      N2              9.7894002991       24.7945549791       27.7820421583  IM1H      47              0.0000000000
       938        47  IM1H      DN2             9.8000832122       24.7939515997       27.7906794354  IM1H      47              0.0000000000
       939        47  IM1H      H7              9.5586511725       23.8233089378       27.7234250292  IM1H      47              0.0000000000
       940        47  IM1H      LPN21           9.7574554310       24.4969164402       27.7622728502  IM1H      47              0.0000000000
       941        48  IM1H      C1             11.1552973115       -1.0876492682        1.5436918676  IM1H      48              0.0000000000
       942        48  IM1H      DC1            11.1463192599       -1.0600462068        1.5405283168  IM1H      48              0.0000000000
       943        48  IM1H      H1             11.9209818213       -0.6295821882        2.2056758415  IM1H      48              0.0000000000
       944        48  IM1H      H2             11.5982866582       -1.3502829941        0.5592605781  IM1H      48              0.0000000000
       945        48  IM1H      H3             10.7650199255       -2.0144045696        2.0160573754  IM1H      48              0.0000000000
       946        48  IM1H      N1             10.0550874853       -0.1271835540        1.3483853757  IM1H      48              0.0000000000
       947        48  IM1H      DN1            10.0450445500       -0.1088469530        1.3387058285  IM1H      48              0.0000000000
       948        48  IM1H      C2             10.1880452115        1.1301969842        0.8051169850  IM1H      48              0.0000000000
       949        48  IM1H      DC2            10.1926407399        1.1035773136        0.7984867975  IM1H      48              0.0000000000
       950        48  IM1H      H4             11.1363513774        1.5554174362        0.5004992200  IM1H      48              0.0000000000
       951        48  IM1H      C3              8.9412912154        1.6968556805        0.8145793850  IM1H      48              0.0000000000
       952        48  IM1H      DC3             8.9551408430        1.6851126042        0.7981532287  IM1H      48              0.0000000000
       953        48  IM1H      H5              8.6252877879        2.6899807645        0.5200740347  IM1H      48              0.0000000000
       954        48  IM1H      C4              8.7799336241       -0.3500159490        1.6922232617  IM1H      48              0.0000000000
       955        48  IM1H      DC4             8.8234213191       -0.3563739171        1.6904939867  IM1H      48              0.0000000000
       956        48  IM1H      H6              8.3815645469       -1.2576547416        2.1456478977  IM1H      48              0.0000000000
       957        48  IM1H      N2              8.0897068688        0.7610266634        1.3657822795  IM1H      48              0.0000000000
       958        48  IM1H      DN2             8.1074279453        0.7595303993        1.3614990480  IM1H      48              0.0000000000
       959        48  IM1H      H7              7.1050598386        0.8894029079        1.4840606199  IM1H      48              0.0000000000
       960        48  IM1H      LPN21           7.7947015165        0.7945030434        1.4088075523  IM1H      48              0.0000000000
       961        49  IM1H      C1              8.3354133504      -13.0047079737        4.4439920828  IM1H      49              0.0000000000
       962        49  IM1H      DC1             8.3471540030      -13.0069595099        4.4173256373  IM1H      49              0.0000000000
       963        49  IM1H      H1              9.4423843754      -12.9272539350        4.4981863965  IM1H      49              0.0000000000
       964        49  IM1H      H2              7.9757324184      -13.7437668968        5.1914829098  IM1H      49              0.0000000000
       965        49  IM1H      H3              7.8682693010      -12.0177219164        4.6488236230  IM1H      49              0.0000000000
       966        49  IM1H      N1              7.9561493968      -13.4644882773        3.1022528428  IM1H      49              0.0000000000
       967        49  IM1H      DN1             7.9566438278      -13.4709290168        3.0824689516  IM1H      49              0.0000000000
       968        49  IM1H      C2              8.3348020571      -14.6648932631        2.5552559868  IM1H      49              0.0000000000
       969        49  IM1H      DC2             8.3348902137      -14.6371580262        2.5604634431  IM1H      49              0.0000000000
       970        49  IM1H      H4              8.9411768854      -15.3902057846        3.0835743697  IM1H      49              0.0000000000
       971        49  IM1H      C3              7.7795190358      -14.7150830787        1.3052421820  IM1H      49              0.0000000000
       972        49  IM1H      DC3             7.7888233919      -14.7140718968        1.3145330087  IM1H      49              0.0000000000
       973        49  IM1H      H5              7.8427842257      -15.4820688270        0.5432583386  IM1H      49              0.0000000000
       974        49  IM1H      C4              7.1857100410      -12.7801960954        2.2429476541  IM1H      49              0.0000000000
       975        49  IM1H      DC4             7.1962897113      -12.7981987201        2.2758611720  IM1H      49              0.0000000000
       976        49  IM1H      H6              6.7788046494      -11.7822406002        2.4060820524  IM1H      49              0.0000000000
       977        49  IM1H      N2              7.0744458840      -13.5391611141        1.1360355913  IM1H      49              0.0000000000
       978        49  IM1H      DN2             7.0786777586      -13.5404908026        1.1445488339  IM1H      49              0.0000000000
       979        49  IM1H      H7              6.5878068314      -13.2933061444        0.2977410331  IM1H      49              0.0000000000
       980        49  IM1H      LPN21           6.9185659673      -13.4595047232        0.8924040848  IM1H      49              0.0000000000
       981        50  IM1H      C1            -24.3265561972       13.4827282516       -4.9005052457  IM1H      50              0.0000000000
       982        50  IM1H      DC1           -24.3337749215       13.4857487314       -4.9024829457  IM1H      50              0.0000000000
       983        50  IM1H      H1            -24.3976563205       13.0173326921       -3.8941888203  IM1H      50              0.0000000000
       984        50  IM1H      H2            -24.6428421547       12.7553440616       -5.6784489675  IM1H      50              0.0000000000
       985        50  IM1H      H3            -24.9592496395       14.3950278046       -4.9420929069  IM1H      50              0.0000000000
       986        50  IM1H      N1            -22.9235106166       13.8432412872       -5.1435115487  IM1H      50              0.0000000000
       987        50  IM1H      DN1           -22.9225661361       13.8445813995       -5.1442855573  IM1H      50              0.0000000000
       988        50  IM1H      C2            -21.8954059741       12.9384971720       -5.2293379668  IM1H      50              0.0000000000
       989        50  IM1H      DC2           -21.9322246737       12.9544781482       -5.2257579759  IM1H      50              0.0000000000
       990        50  IM1H      H4            -22.0298421919       11.8686755518       -5.1278608539  IM1H      50              0.0000000000
       991        50  IM1H      C3            -20.7531480350       13.6645430365       -5.4366143864  IM1H      50              0.0000000000
       992        50  IM1H      DC3           -20.7777163375       13.6512104386       -5.4449572812  IM1H      50              0.0000000000
       993        50  IM1H      H5            -19.7289981046       13.3277230972       -5.5393677362  IM1H      50              0.0000000000
       994        50  IM1H      C4            -22.4591745558       15.0948442358       -5.2901630688  IM1H      50              0.0000000000
       995        50  IM1H      DC4           -22.5045213900       15.0680881240       -5.2851428626  IM1H      50              0.0000000000
       996        50  IM1H      H6            -23.0519867697       16.0095226730       -5.2840773827  IM1H      50              0.0000000000
       997        50  IM1H      N2            -21.1267701373       14.9969027673       -5.4704212569  IM1H      50              0.0000000000
       998        50  IM1H      DN2           -21.1624059730       14.9800070592       -5.4792573959  IM1H      50              0.0000000000
       999        50  IM1H      H7            -20.4816872832       15.7582042553       -5.5359052684  IM1H      50              0.0000000000
      1000        50  IM1H      LPN21         -20.9444888427       15.2316724273       -5.5111242837  IM1H      50              0.0000000000
      1001        51  IM1H      C1             26.2701133293       22.7883479732       16.0495322100  IM1H      51              0.0000000000
      1002        51  IM1H      DC1            26.2657059200       22.7952430348       16.0810995391  IM1H      51              0.0000000000
      1003        51  IM1H      H1             25.3202400763       23.3461994650       15.9050901219  IM1H      51              0.0000000000
      1004        51  IM1H      H2             26.3994244216       22.0697898124       15.2121112819  IM1H      51              0.0000000000
      1005        51  IM1H      H3             27.1231686991       23.4995336308       16.0783852551  IM1H      51              0.0000000000
      1006        51  IM1H      N1             26.1995313804       22.0507246036       17.3240336808  IM1H      51              0.0000000000
      1007        51  IM1H      DN1            26.1978388874       22.0462834729       17.3482064388  IM1H      51              0.0000000000
      1008        51  IM1H      C2             25.1277834507       21.2765855278       17.7047310604  IM1H      51              0.0000000000
      1009        51  IM1H      DC2            25.1434651472       21.3088134173       17.7202330087  IM1H      51              0.0000000000
      1010        51  IM1H      H4             24.3081290282       21.0367319497       17.0387536669  IM1H      51              0.0000000000
      1011        51  IM1H      C3             25.3879794207       20.8409292997       18.9757869239  IM1H      51              0.0000000000
      1012        51  IM1H      DC3            25.3844464427       20.8404005962       18.9959034498  IM1H      51              0.0000000000
      1013        51  IM1H      H5             24.7933410865       20.1792102212       19.5933807327  IM1H      51              0.0000000000
      1014        51  IM1H      C4             27.0961736732       22.1275319034       18.3218522601  IM1H      51              0.0000000000
      1015        51  IM1H      DC4            27.0699706417       22.1413923666       18.3087964206  IM1H      51              0.0000000000
      1016        51  IM1H      H6             28.0369209885       22.6778235527       18.3053117226  IM1H      51              0.0000000000
      1017        51  IM1H      N2             26.6071234810       21.3863412904       19.3373045370  IM1H      51              0.0000000000
      1018        51  IM1H      DN2            26.6012607495       21.3819463982       19.3427002851  IM1H      51              0.0000000000
      1019        51  IM1H      H7             27.0666799087       21.2549957629       20.2156872794  IM1H      51              0.0000000000
      1020        51  IM1H      LPN21          26.7466001745       21.3489807183       19.6002692487  IM1H      51              0.0000000000
      1021        52  IM1H      C1             24.4257953178        0.7781046593       -6.5917549166  IM1H      52              0.0000000000
      1022        52  IM1H      DC1            24.4179315318        0.7843304778       -6.5798096588  IM1H      52              0.0000000000
      1023        52  IM1H      H1             24.0878172100        1.1418373029       -7.5856313501  IM1H      52              0.0000000000
      1024        52  IM1H      H2             23.6848332260        1.0444784932       -5.8079557332  IM1H      52              0.0000000000
      1025        52  IM1H      H3             24.5595073248       -0.3242241887       -6.6279931569  IM1H      52              0.0000000000
      1026        52  IM1H      N1             25.7080580701        1.4168712124       -6.2704985404  IM1H      52              0.0000000000
      1027        52  IM1H      DN1            25.7126127631        1.4124379659       -6.2702784055  IM1H      52              0.0000000000
      1028        52  IM1H      C2             25.8556334639        2.7556655292       -6.0373596667  IM1H      52              0.0000000000
      1029        52  IM1H      DC2            25.8322930381        2.7125540490       -6.0676274359  IM1H      52              0.0000000000
      1030        52  IM1H      H4             25.0393891433        3.4589435603       -5.9276590739  IM1H      52              0.0000000000
      1031        52  IM1H      C3             27.1911397563        2.9704606156       -5.8508335100  IM1H      52              0.0000000000
      1032        52  IM1H      DC3            27.1787450251        2.9429956617       -5.8920015823  IM1H      52              0.0000000000
      1033        52  IM1H      H5             27.6850627449        3.8924179037       -5.5698996384  IM1H      52              0.0000000000
      1034        52  IM1H      C4             26.9024962914        0.8012134868       -6.2237837127  IM1H      52              0.0000000000
      1035        52  IM1H      DC4            26.8585340023        0.7911856871       -6.2356884454  IM1H      52              0.0000000000
      1036        52  IM1H      H6             27.0851072392       -0.2586133783       -6.4013231672  IM1H      52              0.0000000000
      1037        52  IM1H      N2             27.8190517100        1.7490764666       -5.9535247315  IM1H      52              0.0000000000
      1038        52  IM1H      DN2            27.8024745755        1.7313817676       -5.9707994687  IM1H      52              0.0000000000
      1039        52  IM1H      H7             28.7763359301        1.6109651554       -5.6994928683  IM1H      52              0.0000000000
      1040        52  IM1H      LPN21          28.1127755017        1.6970063568       -5.9216650730  IM1H      52              0.0000000000
      1041        53  IM1H      C1            -19.9237979896        4.7873219584      -18.8081084181  IM1H      53              0.0000000000
      1042        53  IM1H      DC1           -19.9265497629        4.7807758173      -18.8148997454  IM1H      53              0.0000000000
      1043        53  IM1H      H1            -18.9141595655        4.3771807290      -18.5919246379  IM1H      53              0.0000000000
      1044        53  IM1H      H2            -20.2628507104        5.4070161015      -17.9505867440  IM1H      53              0.0000000000
      1045        53  IM1H      H3            -19.8864496720        5.3870643209      -19.7425789646  IM1H      53              0.0000000000
      1046        53  IM1H      N1            -20.8631434830        3.6696047534      -18.9727829095  IM1H      53              0.0000000000
      1047        53  IM1H      DN1           -20.8710618542        3.6600948181      -18.9801127481  IM1H      53              0.0000000000
      1048        53  IM1H      C2            -21.1953760012        2.8078527911      -17.9586026210  IM1H      53              0.0000000000
      1049        53  IM1H      DC2           -21.1936029272        2.8293352449      -17.9909835017  IM1H      53              0.0000000000
      1050        53  IM1H      H4            -20.7913408806        2.8869744021      -16.9569118543  IM1H      53              0.0000000000
      1051        53  IM1H      C3            -22.0229489796        1.8637864714      -18.4996510319  IM1H      53              0.0000000000
      1052        53  IM1H      DC3           -22.0132786376        1.8633707407      -18.4981358196  IM1H      53              0.0000000000
      1053        53  IM1H      H5            -22.4536761188        0.9845857835      -18.0366507274  IM1H      53              0.0000000000
      1054        53  IM1H      C4            -21.4652375880        3.3004221752      -20.1156371723  IM1H      53              0.0000000000
      1055        53  IM1H      DC4           -21.4336428526        3.3221016600      -20.1029696683  IM1H      53              0.0000000000
      1056        53  IM1H      H6            -21.3977484272        3.8179129368      -21.0725846760  IM1H      53              0.0000000000
      1057        53  IM1H      N2            -22.1933834965        2.1980449347      -19.8298988553  IM1H      53              0.0000000000
      1058        53  IM1H      DN2           -22.1659795079        2.2073514467      -19.8269825391  IM1H      53              0.0000000000
      1059        53  IM1H      H7            -22.9122888688        1.8008400854      -20.4003402400  IM1H      53              0.0000000000
      1060        53  IM1H      LPN21         -22.3642584586        2.0520012168      -20.0285769360  IM1H      53              0.0000000000
      1061        54  IM1H      C1             -0.6405458937        8.0087189438       21.8638477203  IM1H      54              0.0000000000
      1062        54  IM1H      DC1            -0.6257542055        7.9925191166       21.8685347134  IM1H      54              0.0000000000
      1063        54  IM1H      H1              0.0550349063        8.8300936967       21.5884718573  IM1H      54              0.0000000000
      1064        54  IM1H      H2             -0.4395419293        7.1078897887       21.2454423213  IM1H      54              0.0000000000
      1065        54  IM1H      H3             -0.5407325768        7.7756749002       22.9455356490  IM1H      54              0.0000000000
      1066        54  IM1H      N1             -2.0112908118        8.4637104086       21.5929129352  IM1H      54              0.0000000000
      1067        54  IM1H      DN1            -2.0030427884        8.4600192770       21.5897611912  IM1H      54              0.0000000000
      1068        54  IM1H      C2             -2.4351306689        8.9645893428       20.3866948516  IM1H      54              0.0000000000
      1069        54  IM1H      DC2            -2.4175266407        8.9464433575       20.4169289597  IM1H      54              0.0000000000
      1070        54  IM1H      H4             -1.7928371530        9.0582423206       19.5197593527  IM1H      54              0.0000000000
      1071        54  IM1H      C3             -3.7430125283        9.3362861081       20.5506389408  IM1H      54              0.0000000000
      1072        54  IM1H      DC3            -3.7125726437        9.3316030043       20.5484440612  IM1H      54              0.0000000000
      1073        54  IM1H      H5             -4.4414609234        9.7726430971       19.8473243474  IM1H      54              0.0000000000
      1074        54  IM1H      C4             -3.0130352556        8.4870256495       22.4834219453  IM1H      54              0.0000000000
      1075        54  IM1H      DC4            -2.9569220817        8.4578726055       22.4699058451  IM1H      54              0.0000000000
      1076        54  IM1H      H6             -2.9497173959        8.2498279351       23.5454144560  IM1H      54              0.0000000000
      1077        54  IM1H      N2             -4.0744694989        9.0427438362       21.8595170640  IM1H      54              0.0000000000
      1078        54  IM1H      DN2            -4.0469512325        9.0279309752       21.8562572441  IM1H      54              0.0000000000
      1079        54  IM1H      H7             -4.9341885398        9.3249812351       22.2852226210  IM1H      54              0.0000000000
      1080        54  IM1H      LPN21          -4.3399005942        9.0926877074       21.9901001540  IM1H      54              0.0000000000
      1081        55  IM1H      C1              3.5412060752       25.9941986880      -21.2564243646  IM1H      55              0.0000000000
      1082        55  IM1H      DC1             3.5554923217       25.9672837822      -21.2625579774  IM1H      55              0.0000000000
      1083        55  IM1H      H1              3.5695072734       25.9292020100      -20.1476883837  IM1H      55              0.0000000000
      1084        55  IM1H      H2              2.5881753496       26.4742109583      -21.5656842207  IM1H      55              0.0000000000
      1085        55  IM1H      H3              4.3975954328       26.5955746972      -21.6296068438  IM1H      55              0.0000000000
      1086        55  IM1H      N1              3.5993050324       24.6324659798      -21.8117169867  IM1H      55              0.0000000000
      1087        55  IM1H      DN1             3.6239777485       24.6111847969      -21.8319873918  IM1H      55              0.0000000000
      1088        55  IM1H      C2              2.7198010531       23.6257975078      -21.5043756455  IM1H      55              0.0000000000
      1089        55  IM1H      DC2             2.7634232343       23.6512825197      -21.5434208521  IM1H      55              0.0000000000
      1090        55  IM1H      H4              1.9093291093       23.7247736437      -20.7928786654  IM1H      55              0.0000000000
      1091        55  IM1H      C3              3.0969434077       22.5336841617      -22.2310896399  IM1H      55              0.0000000000
      1092        55  IM1H      DC3             3.1191616881       22.5370893006      -22.2552243080  IM1H      55              0.0000000000
      1093        55  IM1H      H5              2.6438310453       21.5500575438      -22.2386304341  IM1H      55              0.0000000000
      1094        55  IM1H      C4              4.5043295470       24.2024083841      -22.7018675280  IM1H      55              0.0000000000
      1095        55  IM1H      DC4             4.5201640898       24.2119556778      -22.6985946671  IM1H      55              0.0000000000
      1096        55  IM1H      H6              5.3022068524       24.8168347262      -23.1189671273  IM1H      55              0.0000000000
      1097        55  IM1H      N2              4.2033657165       22.9137267221      -22.9630578712  IM1H      55              0.0000000000
      1098        55  IM1H      DN2             4.2259230179       22.9144378879      -22.9763662654  IM1H      55              0.0000000000
      1099        55  IM1H      H7              4.6640895561       22.3053064577      -23.6092454025  IM1H      55              0.0000000000
      1100        55  IM1H      LPN21           4.3574369832       22.7399950302      -23.1530035056  IM1H      55              0.0000000000
      1101        56  IM1H      C1              8.2781598227        4.5454822917       22.6417951681  IM1H      56              0.0000000000
      1102        56  IM1H      DC1             8.3264010215        4.5182428117       22.6303659444  IM1H      56              0.0000000000
      1103        56  IM1H      H1              7.4542345414        5.1899852717       22.2675171439  IM1H      56              0.0000000000
      1104        56  IM1H      H2              8.2182241010        4.4927676443       23.7499241661  IM1H      56              0.0000000000
      1105        56  IM1H      H3              8.1911747340        3.5303393846       22.1988059217  IM1H      56              0.0000000000
      1106        56  IM1H      N1              9.5510348422        5.1616524119       22.2752515086  IM1H      56              0.0000000000
      1107        56  IM1H      DN1             9.5880453009        5.1627117309       22.2658914278  IM1H      56              0.0000000000
      1108        56  IM1H      C2              9.9714594865        6.3947431888       22.7089633050  IM1H      56              0.0000000000
      1109        56  IM1H      DC2             9.9980340336        6.3601670601       22.6862049567  IM1H      56              0.0000000000
      1110        56  IM1H      H4              9.3674276426        7.0011239668       23.3725421500  IM1H      56              0.0000000000
      1111        56  IM1H      C3             11.1888537254        6.6164872303       22.1196976450  IM1H      56              0.0000000000
      1112        56  IM1H      DC3            11.2053479116        6.6096195411       22.1241344291  IM1H      56              0.0000000000
      1113        56  IM1H      H5             11.8364364221        7.4817765809       22.1889796098  IM1H      56              0.0000000000
      1114        56  IM1H      C4             10.4575694014        4.6126605800       21.4533425619  IM1H      56              0.0000000000
      1115        56  IM1H      DC4            10.4477603069        4.6026962759       21.4768095538  IM1H      56              0.0000000000
      1116        56  IM1H      H6             10.3594492489        3.6444087923       20.9624648670  IM1H      56              0.0000000000
      1117        56  IM1H      N2             11.4669392228        5.5004800161       21.3472101304  IM1H      56              0.0000000000
      1118        56  IM1H      DN2            11.4676394358        5.4921590966       21.3567640319  IM1H      56              0.0000000000
      1119        56  IM1H      H7             12.2607686888        5.4110841198       20.7456761308  IM1H      56              0.0000000000
      1120        56  IM1H      LPN21          11.7121030536        5.4569773216       21.1798715167  IM1H      56              0.0000000000
      1121        57  IM1H      C1              2.7671795445      -20.9927416461       26.9969016853  IM1H      57              0.0000000000
      1122        57  IM1H      DC1             2.8296842517      -20.9235980038       27.0482109413  IM1H      57              0.0000000000
      1123        57  IM1H      H1              2.5020612843      -21.8008412248       27.7117501867  IM1H      57              0.0000000000
      1124        57  IM1H      H2              3.3393285653      -21.4259301254       26.1487777312  IM1H      57              0.0000000000
      1125        57  IM1H      H3              1.8267417611      -20.5479331363       26.6069745573  IM1H      57              0.0000000000
      1126        57  IM1H      N1              3.5572691255      -19.9708822759       27.6508673798  IM1H      57              0.0000000000
      1127        57  IM1H      DN1             3.6054767968      -19.9257336028       27.6759465632  IM1H      57              0.0000000000
      1128        57  IM1H      C2              4.7729607029      -20.2011203202       28.2356882421  IM1H      57              0.0000000000
      1129        57  IM1H      DC2             4.7948582196      -20.1910866043       28.2249414303  IM1H      57              0.0000000000
      1130        57  IM1H      H4              5.1854806790      -21.2011321248       28.2875790888  IM1H      57              0.0000000000
      1131        57  IM1H      C3              5.2015758116      -18.9976236877       28.7213948677  IM1H      57              0.0000000000
      1132        57  IM1H      DC3             5.2334656171      -19.0024209000       28.7237006722  IM1H      57              0.0000000000
      1133        57  IM1H      H5              6.0945475180      -18.7584805463       29.2855766554  IM1H      57              0.0000000000
      1134        57  IM1H      C4              3.2158386672      -18.6802154898       27.7488672268  IM1H      57              0.0000000000
      1135        57  IM1H      DC4             3.2342794389      -18.6886533007       27.7431761125  IM1H      57              0.0000000000
      1136        57  IM1H      H6              2.2821580480      -18.2576831989       27.3776436225  IM1H      57              0.0000000000
      1137        57  IM1H      N2              4.2228718556      -18.0700602177       28.4055082127  IM1H      57              0.0000000000
      1138        57  IM1H      DN2             4.2393609291      -18.0813897506       28.4079831462  IM1H      57              0.0000000000
      1139        57  IM1H      H7              4.2571327013      -17.0966132518       28.6318424768  IM1H      57              0.0000000000
      1140        57  IM1H      LPN21           4.2282203660      -17.7772067771       28.4703792830  IM1H      57              0.0000000000
      1141        58  IM1H      C1             -4.3931760104       -0.4249869637      -23.8471060838  IM1H      58              0.0000000000
      1142        58  IM1H      DC1            -4.3458362850       -0.3946683551      -23.8575614067  IM1H      58              0.0000000000
      1143        58  IM1H      H1             -3.4180804283       -0.8155978832      -23.4852598245  IM1H      58              0.0000000000
      1144        58  IM1H      H2             -4.4868050592       -0.5134284299      -24.9506153541  IM1H      58              0.0000000000
      1145        58  IM1H      H3             -5.2057290430       -1.0143992847      -23.3710055843  IM1H      58              0.0000000000
      1146        58  IM1H      N1             -4.5230500313        0.9902433520      -23.4659433753  IM1H      58              0.0000000000
      1147        58  IM1H      DN1            -4.4967088670        1.0078871265      -23.4783862668  IM1H      58              0.0000000000
      1148        58  IM1H      C2             -3.8735521734        2.0459075849      -24.0625370272  IM1H      58              0.0000000000
      1149        58  IM1H      DC2            -3.8338368534        2.0269676287      -24.0553491800  IM1H      58              0.0000000000
      1150        58  IM1H      H4             -3.3144642727        1.9577436208      -24.9858662410  IM1H      58              0.0000000000
      1151        58  IM1H      C3             -4.3044966914        3.1822166801      -23.4343282842  IM1H      58              0.0000000000
      1152        58  IM1H      DC3            -4.2726475424        3.1803342436      -23.4292427857  IM1H      58              0.0000000000
      1153        58  IM1H      H5             -4.1259896150        4.2171269465      -23.6988749992  IM1H      58              0.0000000000
      1154        58  IM1H      C4             -5.3203179062        1.4279790710      -22.4866410880  IM1H      58              0.0000000000
      1155        58  IM1H      DC4            -5.2404096118        1.4404388894      -22.5533413620  IM1H      58              0.0000000000
      1156        58  IM1H      H6             -6.0061412997        0.8022775734      -21.9154634372  IM1H      58              0.0000000000
      1157        58  IM1H      N2             -5.2013537977        2.7724889952      -22.4657198957  IM1H      58              0.0000000000
      1158        58  IM1H      DN2            -5.1723264505        2.7912852393      -22.4631049011  IM1H      58              0.0000000000
      1159        58  IM1H      H7             -5.8694790140        3.3605436531      -22.0098685880  IM1H      58              0.0000000000
      1160        58  IM1H      LPN21          -5.3502242315        2.9513147025      -22.2763552729  IM1H      58              0.0000000000
      1161        59  IM1H      C1             22.7380231634       -8.7240802814       12.7163763260  IM1H      59              0.0000000000
      1162        59  IM1H      DC1            22.7006655371       -8.7315989268       12.7132766591  IM1H      59              0.0000000000
      1163        59  IM1H      H1             23.4190413301       -8.7120498287       13.5940952587  IM1H      59              0.0000000000
      1164        59  IM1H      H2             23.3532729982       -8.7121933035       11.7913642508  IM1H      59              0.0000000000
      1165        59  IM1H      H3             22.0986242881       -9.6326402397       12.7133961426  IM1H      59              0.0000000000
      1166        59  IM1H      N1             21.9038777913       -7.5153333103       12.7574056211  IM1H      59              0.0000000000
      1167        59  IM1H      DN1            21.8693188384       -7.5145226160       12.7640854836  IM1H      59              0.0000000000
      1168        59  IM1H      C2             22.3790721273       -6.2419440140       12.5689531068  IM1H      59              0.0000000000
      1169        59  IM1H      DC2            22.3307885958       -6.2857486349       12.5811386213  IM1H      59              0.0000000000
      1170        59  IM1H      H4             23.4180061433       -6.0088431705       12.3710412399  IM1H      59              0.0000000000
      1171        59  IM1H      C3             21.3230867715       -5.3987631138       12.7772830476  IM1H      59              0.0000000000
      1172        59  IM1H      DC3            21.2948358330       -5.4169254603       12.7767781866  IM1H      59              0.0000000000
      1173        59  IM1H      H5             21.3208169713       -4.3157909308       12.7698601901  IM1H      59              0.0000000000
      1174        59  IM1H      C4             20.5991640536       -7.4887668118       13.0734133339  IM1H      59              0.0000000000
      1175        59  IM1H      DC4            20.5949065497       -7.5231161334       13.0617452253  IM1H      59              0.0000000000
      1176        59  IM1H      H6             19.9913463658       -8.3552207139       13.3340189630  IM1H      59              0.0000000000
      1177        59  IM1H      N2             20.2369071929       -6.1922876119       13.0950016502  IM1H      59              0.0000000000
      1178        59  IM1H      DN2            20.2226877710       -6.2155794943       13.0845315774  IM1H      59              0.0000000000
      1179        59  IM1H      H7             19.4110037106       -5.8103776580       13.5097645042  IM1H      59              0.0000000000
      1180        59  IM1H      LPN21          19.9601854012       -6.0962537663       13.1598287319  IM1H      59              0.0000000000
      1181        60  IM1H      C1              9.3062338467       -6.6495251473      -20.0070422503  IM1H      60              0.0000000000
      1182        60  IM1H      DC1             9.3112013421       -6.6657644381      -19.9912801032  IM1H      60              0.0000000000
      1183        60  IM1H      H1              9.9696195976       -6.9026911380      -20.8615288372  IM1H      60              0.0000000000
      1184        60  IM1H      H2              9.5730557200       -5.6479018324      -19.6071950008  IM1H      60              0.0000000000
      1185        60  IM1H      H3              8.2458756799       -6.6459114413      -20.3386270830  IM1H      60              0.0000000000
      1186        60  IM1H      N1              9.4924194573       -7.6523359570      -18.9460323308  IM1H      60              0.0000000000
      1187        60  IM1H      DN1             9.4909452570       -7.6672528320      -18.9314072332  IM1H      60              0.0000000000
      1188        60  IM1H      C2             10.7040621915       -7.9608750754      -18.3762502147  IM1H      60              0.0000000000
      1189        60  IM1H      DC2            10.6664345031       -7.9465745529      -18.3754681070  IM1H      60              0.0000000000
      1190        60  IM1H      H4             11.6473428461       -7.5266756053      -18.6837911498  IM1H      60              0.0000000000
      1191        60  IM1H      C3             10.4602207747       -8.9218187149      -17.4363805077  IM1H      60              0.0000000000
      1192        60  IM1H      DC3            10.4576488197       -8.9153946477      -17.4375020472  IM1H      60              0.0000000000
      1193        60  IM1H      H5             11.1499663064       -9.4301581126      -16.7740126657  IM1H      60              0.0000000000
      1194        60  IM1H      C4              8.5126577689       -8.3840636981      -18.3892230782  IM1H      60              0.0000000000
      1195        60  IM1H      DC4             8.5248350063       -8.3684138376      -18.4103030826  IM1H      60              0.0000000000
      1196        60  IM1H      H6              7.4556825371       -8.3395456697      -18.6517521329  IM1H      60              0.0000000000
      1197        60  IM1H      N2              9.1008415198       -9.1681775201      -17.4625134708  IM1H      60              0.0000000000
      1198        60  IM1H      DN2             9.0996624614       -9.1595597293      -17.4736616304  IM1H      60              0.0000000000
      1199        60  IM1H      H7              8.6612747519       -9.8291826721      -16.8543578610  IM1H      60              0.0000000000
      1200        60  IM1H      LPN21           8.9535165883       -9.3649596880      -17.2905479424  IM1H      60              0.0000000000
      1201        61  IM1H      C1             -2.3476505075        1.9429133236      -27.1882076022  IM1H      61              0.0000000000
      1202        61  IM1H      DC1            -2.3106121348        1.9111184942      -27.1636163212  IM1H      61              0.0000000000
      1203        61  IM1H      H1             -3.4474774205        1.9485022544      -27.3452761394  IM1H      61              0.0000000000
      1204        61  IM1H      H2             -1.8469558769        1.8900328631      -28.1785759909  IM1H      61              0.0000000000
      1205        61  IM1H      H3             -2.0487948922        2.8738567464      -26.6606181167  IM1H      61              0.0000000000
      1206        61  IM1H      N1             -1.9881374852        0.7565051329      -26.3881357728  IM1H      61              0.0000000000
      1207        61  IM1H      DN1            -1.9742040147        0.7357742604      -26.3619661485  IM1H      61              0.0000000000
      1208        61  IM1H      C2             -2.2447284394       -0.5378720616      -26.7744792634  IM1H      61              0.0000000000
      1209        61  IM1H      DC2            -2.2172689218       -0.5149454510      -26.7583546079  IM1H      61              0.0000000000
      1210        61  IM1H      H4             -2.7718781761       -0.7814915066      -27.6886191451  IM1H      61              0.0000000000
      1211        61  IM1H      C3             -1.7955930047       -1.3476729716      -25.7636422062  IM1H      61              0.0000000000
      1212        61  IM1H      DC3            -1.7774365174       -1.3362811235      -25.7673837646  IM1H      61              0.0000000000
      1213        61  IM1H      H5             -1.8582534161       -2.4247120677      -25.6690406300  IM1H      61              0.0000000000
      1214        61  IM1H      C4             -1.4032389457        0.7747997844      -25.1767286936  IM1H      61              0.0000000000
      1215        61  IM1H      DC4            -1.4052136334        0.7907016827      -25.1959647304  IM1H      61              0.0000000000
      1216        61  IM1H      H6             -1.1215334047        1.6667593273      -24.6171304788  IM1H      61              0.0000000000
      1217        61  IM1H      N2             -1.2824016133       -0.5129503959      -24.7853396745  IM1H      61              0.0000000000
      1218        61  IM1H      DN2            -1.2758157085       -0.5043987538      -24.7910071379  IM1H      61              0.0000000000
      1219        61  IM1H      H7             -0.9390353861       -0.8359887661      -23.9034406749  IM1H      61              0.0000000000
      1220        61  IM1H      LPN21          -1.1616901982       -0.5991451126      -24.5245730641  IM1H      61              0.0000000000
      1221        62  IM1H      C1            -23.2200035269       -6.4352969057       12.5186938709  IM1H      62              0.0000000000
      1222        62  IM1H      DC1           -23.2393405317       -6.4369444693       12.4760331798  IM1H      62              0.0000000000
      1223        62  IM1H      H1            -22.2379494730       -5.9736043879       12.2805114696  IM1H      62              0.0000000000
      1224        62  IM1H      H2            -23.0698642681       -7.3223686058       13.1705243723  IM1H      62              0.0000000000
      1225        62  IM1H      H3            -23.8585358578       -5.6867612793       13.0347286357  IM1H      62              0.0000000000
      1226        62  IM1H      N1            -23.8636699762       -6.8655141070       11.2693599875  IM1H      62              0.0000000000
      1227        62  IM1H      DN1           -23.8800335845       -6.8742800044       11.2277749539  IM1H      62              0.0000000000
      1228        62  IM1H      C2            -23.3017413650       -7.7481217825       10.3792506404  IM1H      62              0.0000000000
      1229        62  IM1H      DC2           -23.3161391340       -7.7293284229       10.3632890933  IM1H      62              0.0000000000
      1230        62  IM1H      H4            -22.3691119935       -8.2557678252       10.5922927744  IM1H      62              0.0000000000
      1231        62  IM1H      C3            -24.1638478574       -7.8390478956        9.3205556817  IM1H      62              0.0000000000
      1232        62  IM1H      DC3           -24.1601816690       -7.8485325162        9.3006999863  IM1H      62              0.0000000000
      1233        62  IM1H      H5            -24.0936700941       -8.4399128880        8.4222654489  IM1H      62              0.0000000000
      1234        62  IM1H      C4            -25.0411147544       -6.4209009312       10.8060333509  IM1H      62              0.0000000000
      1235        62  IM1H      DC4           -25.0226364163       -6.4267432089       10.8038250278  IM1H      62              0.0000000000
      1236        62  IM1H      H6            -25.6860805780       -5.6979769278       11.3055330724  IM1H      62              0.0000000000
      1237        62  IM1H      N2            -25.2316778977       -7.0093124936        9.6084166364  IM1H      62              0.0000000000
      1238        62  IM1H      DN2           -25.2273034668       -7.0192112968        9.6019560869  IM1H      62              0.0000000000
      1239        62  IM1H      H7            -25.9868470458       -6.8118596846        8.9833310856  IM1H      62              0.0000000000
      1240        62  IM1H      LPN21         -25.4719331999       -6.9632090868        9.4347737108  IM1H      62              0.0000000000
      1241        63  IM1H      C1             -8.5825385277       -5.9139122049        3.9011260577  IM1H      63              0.0000000000
      1242        63  IM1H      DC1            -8.5886012648       -5.9283985397        3.8675458319  IM1H      63              0.0000000000
      1243        63  IM1H      H1             -7.5022139224       -6.1731348244        3.9059614940  IM1H      63              0.0000000000
      1244        63  IM1H      H2             -8.7549290304       -4.9525918586        3.3715359272  IM1H      63              0.0000000000
      1245        63  IM1H      H3             -9.1706804043       -6.7308013509        3.4309109392  IM1H      63              0.0000000000
      1246        63  IM1H      N1             -9.0110127459       -5.7380967126        5.2910895902  IM1H      63              0.0000000000
      1247        63  IM1H      DN1            -9.0197118317       -5.7577723994        5.2745813006  IM1H      63              0.0000000000
      1248        63  IM1H      C2             -8.5202978561       -4.7808187825        6.1362899434  IM1H      63              0.0000000000
      1249        63  IM1H      DC2            -8.5380236693       -4.8427029512        6.0894608071  IM1H      63              0.0000000000
      1250        63  IM1H      H4             -7.8353101330       -3.9902132313        5.8558907965  IM1H      63              0.0000000000
      1251        63  IM1H      C3             -9.1163805469       -4.9835560583        7.3497202480  IM1H      63              0.0000000000
      1252        63  IM1H      DC3            -9.1301342868       -5.0117796579        7.3013805787  IM1H      63              0.0000000000
      1253        63  IM1H      H5             -9.0143511204       -4.4033789144        8.2584960607  IM1H      63              0.0000000000
      1254        63  IM1H      C4             -9.8842948773       -6.5279194305        5.9353380219  IM1H      63              0.0000000000
      1255        63  IM1H      DC4            -9.8889237348       -6.5378130245        5.8770757324  IM1H      63              0.0000000000
      1256        63  IM1H      H6            -10.3828959596       -7.3952333613        5.5025984857  IM1H      63              0.0000000000
      1257        63  IM1H      N2             -9.9418972502       -6.0784880013        7.2067504135  IM1H      63              0.0000000000
      1258        63  IM1H      DN2            -9.9656735631       -6.0952099275        7.1631863695  IM1H      63              0.0000000000
      1259        63  IM1H      H7            -10.3270206826       -6.5233354906        8.0153236342  IM1H      63              0.0000000000
      1260        63  IM1H      LPN21         -10.1104907957       -6.2017415904        7.4221216493  IM1H      63              0.0000000000
      1261        64  IM1H      C1             11.0149980049        9.7196666494      -21.9689668688  IM1H      64              0.0000000000
      1262        64  IM1H      DC1            11.0043663665        9.6873661170      -22.0033171555  IM1H      64              0.0000000000
      1263        64  IM1H      H1             10.4952708192        9.8931093671      -21.0024668552  IM1H      64              0.0000000000
      1264        64  IM1H      H2             10.7204284631       10.5135963757      -22.6881506932  IM1H      64              0.0000000000
      1265        64  IM1H      H3             12.1128954444        9.7564762527      -21.8028727259  IM1H      64              0.0000000000
      1266        64  IM1H      N1             10.6359921983        8.3997873835      -22.5076240720  IM1H      64              0.0000000000
      1267        64  IM1H      DN1            10.6214633252        8.3768333656      -22.5273464231  IM1H      64              0.0000000000
      1268        64  IM1H      C2              9.3457068291        8.0201870551      -22.7958686068  IM1H      64              0.0000000000
      1269        64  IM1H      DC2             9.3648699339        8.0327546162      -22.8142166693  IM1H      64              0.0000000000
      1270        64  IM1H      H4              8.4792304424        8.6288400906      -22.5686041019  IM1H      64              0.0000000000
      1271        64  IM1H      C3              9.4096570653        6.7421687587      -23.2779091230  IM1H      64              0.0000000000
      1272        64  IM1H      DC3             9.4096092429        6.7481117768      -23.2954071563  IM1H      64              0.0000000000
      1273        64  IM1H      H5              8.5966864622        6.0837066341      -23.5579009615  IM1H      64              0.0000000000
      1274        64  IM1H      C4             11.4910507845        7.4028673893      -22.7941457018  IM1H      64              0.0000000000
      1275        64  IM1H      DC4            11.4692958823        7.4324851002      -22.8065377627  IM1H      64              0.0000000000
      1276        64  IM1H      H6             12.5652597077        7.4040933392      -22.6092844389  IM1H      64              0.0000000000
      1277        64  IM1H      N2             10.7443292529        6.3790553621      -23.2596119908  IM1H      64              0.0000000000
      1278        64  IM1H      DN2            10.7381491913        6.3824762950      -23.2744754847  IM1H      64              0.0000000000
      1279        64  IM1H      H7             11.0768390645        5.4461969820      -23.3982210383  IM1H      64              0.0000000000
      1280        64  IM1H      LPN21          10.8566266879        6.1142857493      -23.3449720414  IM1H      64              0.0000000000
      1281        65  IM1H      C1             25.7561376039      -12.7033085703       27.4565991011  IM1H      65              0.0000000000
      1282        65  IM1H      DC1            25.7470688074      -12.7067610992       27.4429033620  IM1H      65              0.0000000000
      1283        65  IM1H      H1             25.7907459093      -11.6887843317       27.0050862701  IM1H      65              0.0000000000
      1284        65  IM1H      H2             26.3762465403      -13.4089754749       26.8634548316  IM1H      65              0.0000000000
      1285        65  IM1H      H3             26.1276684517      -12.6590075592       28.5026981639  IM1H      65              0.0000000000
      1286        65  IM1H      N1             24.3616868480      -13.1719159488       27.4467885723  IM1H      65              0.0000000000
      1287        65  IM1H      DN1            24.3506048711      -13.1775152622       27.4462187247  IM1H      65              0.0000000000
      1288        65  IM1H      C2             23.6316239470      -13.3582039687       26.3030663009  IM1H      65              0.0000000000
      1289        65  IM1H      DC2            23.6593712377      -13.3748217992       26.3242704657  IM1H      65              0.0000000000
      1290        65  IM1H      H4             23.9982138662      -13.1107368323       25.3145012562  IM1H      65              0.0000000000
      1291        65  IM1H      C3             22.3675651149      -13.7127736619       26.6884913315  IM1H      65              0.0000000000
      1292        65  IM1H      DC3            22.3831343929      -13.7255531372       26.6961059431  IM1H      65              0.0000000000
      1293        65  IM1H      H5             21.4844088670      -13.8266099003       26.0720780331  IM1H      65              0.0000000000
      1294        65  IM1H      C4             23.6045333299      -13.4200900566       28.5272723221  IM1H      65              0.0000000000
      1295        65  IM1H      DC4            23.6296844062      -13.4090729984       28.5015854675  IM1H      65              0.0000000000
      1296        65  IM1H      H6             23.9253685507      -13.3400117580       29.5659022981  IM1H      65              0.0000000000
      1297        65  IM1H      N2             22.3791060258      -13.7586665398       28.0693487605  IM1H      65              0.0000000000
      1298        65  IM1H      DN2            22.3863074098      -13.7530707046       28.0685611865  IM1H      65              0.0000000000
      1299        65  IM1H      H7             21.5860169620      -14.0004497044       28.6284110453  IM1H      65              0.0000000000
      1300        65  IM1H      LPN21          22.1475700641      -13.8320023262       28.2454537317  IM1H      65              0.0000000000
      1301        66  IM1H      C1             13.9308647280      -29.3173392917       21.0948662514  IM1H      66              0.0000000000
      1302        66  IM1H      DC1            13.9272574640      -29.2831813600       21.1822558329  IM1H      66              0.0000000000
      1303        66  IM1H      H1             14.7864694972      -30.0217386398       21.1728600942  IM1H      66              0.0000000000
      1304        66  IM1H      H2             14.0481475302      -28.7242070142       20.1627933753  IM1H      66              0.0000000000
      1305        66  IM1H      H3             12.9885711666      -29.8999605839       21.0114619702  IM1H      66              0.0000000000
      1306        66  IM1H      N1             13.8973213565      -28.4102341413       22.2617841274  IM1H      66              0.0000000000
      1307        66  IM1H      DN1            13.8909603028      -28.3826255657       22.3190688406  IM1H      66              0.0000000000
      1308        66  IM1H      C2             14.8004963492      -27.4032441170       22.5133519290  IM1H      66              0.0000000000
      1309        66  IM1H      DC2            14.7776995275      -27.4106726621       22.5401500808  IM1H      66              0.0000000000
      1310        66  IM1H      H4             15.6448019650      -27.2050481941       21.8646953146  IM1H      66              0.0000000000
      1311        66  IM1H      C3             14.3795108554      -26.7650228378       23.6478641581  IM1H      66              0.0000000000
      1312        66  IM1H      DC3            14.3684064805      -26.7594997891       23.6680339650  IM1H      66              0.0000000000
      1313        66  IM1H      H5             14.8288931119      -25.9164811505       24.1487849027  IM1H      66              0.0000000000
      1314        66  IM1H      C4             12.9403745636      -28.4159224142       23.2018595619  IM1H      66              0.0000000000
      1315        66  IM1H      DC4            12.9519747339      -28.4300655303       23.2203911175  IM1H      66              0.0000000000
      1316        66  IM1H      H6             12.0529752568      -29.0481140137       23.1709362430  IM1H      66              0.0000000000
      1317        66  IM1H      N2             13.2246471984      -27.4076113597       24.0524079305  IM1H      66              0.0000000000
      1318        66  IM1H      DN2            13.2206004805      -27.4037608342       24.0702714805  IM1H      66              0.0000000000
      1319        66  IM1H      H7             12.6214230087      -27.0807214632       24.7799129632  IM1H      66              0.0000000000
      1320        66  IM1H      LPN21          13.0583279661      -27.3377959383       24.2921238455  IM1H      66              0.0000000000
      1321        67  IM1H      C1              0.0895814996       21.8211135866       28.4094086364  IM1H      67              0.0000000000
      1322        67  IM1H      DC1             0.1276642018       21.7840732324       28.4367522428  IM1H      67              0.0000000000
      1323        67  IM1H      H1             -0.0676947396       22.1167285903       27.3500706565  IM1H      67              0.0000000000
      1324        67  IM1H      H2              0.9002305449       22.4417351097       28.8475844583  IM1H      67              0.0000000000
      1325        67  IM1H      H3             -0.8612832458       21.9652835932       28.9656390250  IM1H      67              0.0000000000
      1326        67  IM1H      N1              0.4796874248       20.4089698312       28.4411158572  IM1H      67              0.0000000000
      1327        67  IM1H      DN1             0.4940808834       20.3708610037       28.4531982334  IM1H      67              0.0000000000
      1328        67  IM1H      C2              1.5366160094       19.8690496605       27.7469383016  IM1H      67              0.0000000000
      1329        67  IM1H      DC2             1.5240491174       19.8529131010       27.7917627098  IM1H      67              0.0000000000
      1330        67  IM1H      H4              2.1523561051       20.4341158795       27.0581325941  IM1H      67              0.0000000000
      1331        67  IM1H      C3              1.5164363484       18.5232531123       27.9920137546  IM1H      67              0.0000000000
      1332        67  IM1H      DC3             1.5329675980       18.5012643335       28.0218430749  IM1H      67              0.0000000000
      1333        67  IM1H      H5              2.1278976664       17.7581471229       27.5298266899  IM1H      67              0.0000000000
      1334        67  IM1H      C4             -0.1765654982       19.4545341619       29.1129337308  IM1H      67              0.0000000000
      1335        67  IM1H      DC4            -0.1432738053       19.4523098691       29.1079152625  IM1H      67              0.0000000000
      1336        67  IM1H      H6             -1.0599040630       19.6160438212       29.7307748187  IM1H      67              0.0000000000
      1337        67  IM1H      N2              0.4473024066       18.2914259767       28.8377480418  IM1H      67              0.0000000000
      1338        67  IM1H      DN2             0.4603553902       18.2702246313       28.8523565380  IM1H      67              0.0000000000
      1339        67  IM1H      H7              0.0634429207       17.3889427423       29.0331345989  IM1H      67              0.0000000000
      1340        67  IM1H      LPN21           0.3622619855       18.0251564078       28.9466913456  IM1H      67              0.0000000000
      1341        68  IM1H      C1              8.2497924861        9.0649837216       -5.8758847271  IM1H      68              0.0000000000
      1342        68  IM1H      DC1             8.2647290067        9.0441192543       -5.8647915116  IM1H      68              0.0000000000
      1343        68  IM1H      H1              8.3650965817       10.0956729054       -5.4775057971  IM1H      68              0.0000000000
      1344        68  IM1H      H2              7.7322632421        9.1158662027       -6.8576665031  IM1H      68              0.0000000000
      1345        68  IM1H      H3              9.2447431163        8.5827873303       -5.9848841962  IM1H      68              0.0000000000
      1346        68  IM1H      N1              7.4230732667        8.2950655452       -4.9314358990  IM1H      68              0.0000000000
      1347        68  IM1H      DN1             7.4306716590        8.2756117700       -4.9248476780  IM1H      68              0.0000000000
      1348        68  IM1H      C2              6.1960012752        8.7028877358       -4.4740009704  IM1H      68              0.0000000000
      1349        68  IM1H      DC2             6.2482110219        8.6719180037       -4.4878611689  IM1H      68              0.0000000000
      1350        68  IM1H      H4              5.6961574595        9.6143904258       -4.7776586824  IM1H      68              0.0000000000
      1351        68  IM1H      C3              5.7686382179        7.7513205125       -3.5895251724  IM1H      68              0.0000000000
      1352        68  IM1H      DC3             5.7964903669        7.7356269689       -3.6017766240  IM1H      68              0.0000000000
      1353        68  IM1H      H5              4.8425557209        7.7301003905       -3.0284459290  IM1H      68              0.0000000000
      1354        68  IM1H      C4              7.7654667414        7.1272842915       -4.3647649219  IM1H      68              0.0000000000
      1355        68  IM1H      DC4             7.7861833369        7.1280742825       -4.4038178114  IM1H      68              0.0000000000
      1356        68  IM1H      H6              8.7450867525        6.6541621237       -4.4325885776  IM1H      68              0.0000000000
      1357        68  IM1H      N2              6.7659891176        6.8011223779       -3.5182931925  IM1H      68              0.0000000000
      1358        68  IM1H      DN2             6.7820989309        6.7857341270       -3.5348530392  IM1H      68              0.0000000000
      1359        68  IM1H      H7              6.8228497568        6.1591881743       -2.7536446811  IM1H      68              0.0000000000
      1360        68  IM1H      LPN21           6.7656301344        6.5575332568       -3.3431811963  IM1H      68              0.0000000000
      1361        69  IM1H      C1              2.9274309304       19.9818785593       -8.9102839585  IM1H      69              0.0000000000
      1362        69  IM1H      DC1             2.9461534446       20.0064641014       -8.9146070484  IM1H      69              0.0000000000
      1363        69  IM1H      H1              2.4127510622       19.1122672574       -9.3720217826  IM1H      69              0.0000000000
      1364        69  IM1H      H2              3.3604464344       20.6433308947       -9.6908602721  IM1H      69              0.0000000000
      1365        69  IM1H      H3              2.2203894556       20.5437068437       -8.2631654743  IM1H      69              0.0000000000
      1366        69  IM1H      N1              4.0165399899       19.4851817668       -8.0721292944  IM1H      69              0.0000000000
      1367        69  IM1H      DN1             4.0442249791       19.4808836275       -8.0739359910  IM1H      69              0.0000000000
      1368        69  IM1H      C2              5.0769727236       18.7486377759       -8.5405812572  IM1H      69              0.0000000000
      1369        69  IM1H      DC2             5.0800624493       18.7641625180       -8.5335449782  IM1H      69              0.0000000000
      1370        69  IM1H      H4              5.1582079418       18.4348363329       -9.5739342916  IM1H      69              0.0000000000
      1371        69  IM1H      C3              5.8936192309       18.5241508581       -7.4707743632  IM1H      69              0.0000000000
      1372        69  IM1H      DC3             5.8898232201       18.5077591317       -7.4788251446  IM1H      69              0.0000000000
      1373        69  IM1H      H5              6.8357418595       17.9939474834       -7.4061343169  IM1H      69              0.0000000000
      1374        69  IM1H      C4              4.1461629489       19.7236579177       -6.7597188365  IM1H      69              0.0000000000
      1375        69  IM1H      DC4             4.1769077710       19.7240778267       -6.8066426463  IM1H      69              0.0000000000
      1376        69  IM1H      H6              3.4229930761       20.2445087405       -6.1321523019  IM1H      69              0.0000000000
      1377        69  IM1H      N2              5.3008519405       19.1436161590       -6.3862857151  IM1H      69              0.0000000000
      1378        69  IM1H      DN2             5.3062134685       19.1261746023       -6.3846248574  IM1H      69              0.0000000000
      1379        69  IM1H      H7              5.7684936955       19.2787405493       -5.5127569015  IM1H      69              0.0000000000
      1380        69  IM1H      LPN21           5.4086676158       19.1512113223       -6.1064320146  IM1H      69              0.0000000000
      1381        70  IM1H      C1            -10.7547890922       -2.3779266381      -25.2220941725  IM1H      70              0.0000000000
      1382        70  IM1H      DC1           -10.7496648166       -2.3324539672      -25.2247060289  IM1H      70              0.0000000000
      1383        70  IM1H      H1            -11.3795917006       -3.2947196096      -25.1634993762  IM1H      70              0.0000000000
      1384        70  IM1H      H2             -9.6873732155       -2.6849125718      -25.1955614765  IM1H      70              0.0000000000
      1385        70  IM1H      H3            -10.9871572743       -1.8056075674      -26.1455533807  IM1H      70              0.0000000000
      1386        70  IM1H      N1            -11.0319666979       -1.5560048892      -24.0404134605  IM1H      70              0.0000000000
      1387        70  IM1H      DN1           -11.0379010096       -1.5200610572      -24.0344231981  IM1H      70              0.0000000000
      1388        70  IM1H      C2            -10.8330017341       -1.9983373326      -22.7622444055  IM1H      70              0.0000000000
      1389        70  IM1H      DC2           -10.8341596318       -1.9360757551      -22.7942994643  IM1H      70              0.0000000000
      1390        70  IM1H      H4            -10.4559216627       -2.9877132576      -22.5345716166  IM1H      70              0.0000000000
      1391        70  IM1H      C3            -11.1813065172       -0.9752333257      -21.9332474106  IM1H      70              0.0000000000
      1392        70  IM1H      DC3           -11.1991048902       -0.9607003479      -21.9243807835  IM1H      70              0.0000000000
      1393        70  IM1H      H5            -11.1403840325       -0.9542208356      -20.8512248482  IM1H      70              0.0000000000
      1394        70  IM1H      C4            -11.4865352033       -0.2929774590      -24.0346733192  IM1H      70              0.0000000000
      1395        70  IM1H      DC4           -11.4801781083       -0.2937955221      -24.0571300639  IM1H      70              0.0000000000
      1396        70  IM1H      H6            -11.7402872523        0.3011436810      -24.9125855976  IM1H      70              0.0000000000
      1397        70  IM1H      N2            -11.5793384593        0.0723715057      -22.7420644628  IM1H      70              0.0000000000
      1398        70  IM1H      DN2           -11.5834563531        0.0786601451      -22.7528485689  IM1H      70              0.0000000000
      1399        70  IM1H      H7            -11.8692724790        0.9658496351      -22.3990847308  IM1H      70              0.0000000000
      1400        70  IM1H      LPN21         -11.6730116802        0.3420214481      -22.6497918436  IM1H      70              0.0000000000
      1401        71  IM1H      C1             11.2809821689       -0.3381082079       12.6755929704  IM1H      71              0.0000000000
      1402        71  IM1H      DC1            11.3025220291       -0.3888427746       12.7174773227  IM1H      71              0.0000000000
      1403        71  IM1H      H1             11.5586627928        0.7118299891       12.4414044698  IM1H      71              0.0000000000
      1404        71  IM1H      H2             10.1804027043       -0.3916252686       12.8176555147  IM1H      71              0.0000000000
      1405        71  IM1H      H3             11.5988108578       -0.9943667117       11.8373622743  IM1H      71              0.0000000000
      1406        71  IM1H      N1             11.9599078002       -0.7165881627       13.9204926267  IM1H      71              0.0000000000
      1407        71  IM1H      DN1            11.9859917990       -0.7406905274       13.9537970262  IM1H      71              0.0000000000
      1408        71  IM1H      C2             11.7669369279       -0.0677194345       15.1135859389  IM1H      71              0.0000000000
      1409        71  IM1H      DC2            11.7790971079       -0.0936894274       15.0988102392  IM1H      71              0.0000000000
      1410        71  IM1H      H4             11.0971732921        0.7767512705       15.2192973407  IM1H      71              0.0000000000
      1411        71  IM1H      C3             12.5961397664       -0.6620505917       16.0197147004  IM1H      71              0.0000000000
      1412        71  IM1H      DC3            12.5912351016       -0.6788336375       16.0170411082  IM1H      71              0.0000000000
      1413        71  IM1H      H5             12.7901021508       -0.3948091562       17.0511455557  IM1H      71              0.0000000000
      1414        71  IM1H      C4             12.8764493283       -1.6889692194       14.0555998400  IM1H      71              0.0000000000
      1415        71  IM1H      DC4            12.8685406905       -1.7007492205       14.0360499092  IM1H      71              0.0000000000
      1416        71  IM1H      H6             13.2458898103       -2.3260379425       13.2520096630  IM1H      71              0.0000000000
      1417        71  IM1H      N2             13.2747275863       -1.6616111311       15.3419503456  IM1H      71              0.0000000000
      1418        71  IM1H      DN2            13.2676040545       -1.6700294815       15.3321640354  IM1H      71              0.0000000000
      1419        71  IM1H      H7             14.0330498309       -2.1650928298       15.7560198474  IM1H      71              0.0000000000
      1420        71  IM1H      LPN21          13.4800752831       -1.8470186680       15.4579519348  IM1H      71              0.0000000000
      1421        72  IM1H      C1              3.2055266240       -3.0852244166       12.2088468385  IM1H      72              0.0000000000
      1422        72  IM1H      DC1             3.2428320253       -3.1438819301       12.2051355711  IM1H      72              0.0000000000
      1423        72  IM1H      H1              2.3064349612       -3.7378574882       12.2138723644  IM1H      72              0.0000000000
      1424        72  IM1H      H2              3.6416717952       -3.0366482795       11.1881907991  IM1H      72              0.0000000000
      1425        72  IM1H      H3              2.9316936469       -2.0638157107       12.5495237486  IM1H      72              0.0000000000
      1426        72  IM1H      N1              4.1665238631       -3.6572942609       13.1408901931  IM1H      72              0.0000000000
      1427        72  IM1H      DN1             4.1919078558       -3.7018960999       13.1387720322  IM1H      72              0.0000000000
      1428        72  IM1H      C2              4.6578234047       -4.9380252621       13.0339273483  IM1H      72              0.0000000000
      1429        72  IM1H      DC2             4.6644400884       -4.9519486993       13.0212453566  IM1H      72              0.0000000000
      1430        72  IM1H      H4              4.3169618881       -5.6297403985       12.2735112802  IM1H      72              0.0000000000
      1431        72  IM1H      C3              5.5306833807       -5.1039718300       14.0705903379  IM1H      72              0.0000000000
      1432        72  IM1H      DC3             5.5558717792       -5.1374325859       14.0492507779  IM1H      72              0.0000000000
      1433        72  IM1H      H5              6.0796563700       -5.9890785931       14.3674129730  IM1H      72              0.0000000000
      1434        72  IM1H      C4              4.6936165398       -3.0217714349       14.1996831761  IM1H      72              0.0000000000
      1435        72  IM1H      DC4             4.7160879712       -3.1005227746       14.1416159655  IM1H      72              0.0000000000
      1436        72  IM1H      H6              4.4273827731       -2.0251311604       14.5517169028  IM1H      72              0.0000000000
      1437        72  IM1H      N2              5.5343169638       -3.9099403563       14.7753582924  IM1H      72              0.0000000000
      1438        72  IM1H      DN2             5.5621573822       -3.9448445033       14.7625812173  IM1H      72              0.0000000000
      1439        72  IM1H      H7              5.9484659404       -3.7563196987       15.6725100737  IM1H      72              0.0000000000
      1440        72  IM1H      LPN21           5.6962569793       -3.8512215098       15.0209749214  IM1H      72              0.0000000000
      1441        73  IM1H      C1             24.8681261567       16.9021933765       20.0317628578  IM1H      73              0.0000000000
      1442        73  IM1H      DC1            24.8383813274       16.9100550751       20.0294046283  IM1H      73              0.0000000000
      1443        73  IM1H      H1             24.6499355292       17.4179925784       19.0722499427  IM1H      73              0.0000000000
      1444        73  IM1H      H2             24.4173305808       17.4546376992       20.8837661554  IM1H      73              0.0000000000
      1445        73  IM1H      H3             24.4953598081       15.8558024756       20.0109702209  IM1H      73              0.0000000000
      1446        73  IM1H      N1             26.3199745244       16.8572295252       20.2118374627  IM1H      73              0.0000000000
      1447        73  IM1H      DN1            26.3037987986       16.8898332074       20.2105389843  IM1H      73              0.0000000000
      1448        73  IM1H      C2             27.1047047546       17.9818742051       20.3042546873  IM1H      73              0.0000000000
      1449        73  IM1H      DC2            27.0663429957       17.9978813209       20.3088610506  IM1H      73              0.0000000000
      1450        73  IM1H      H4             26.7055704257       18.9885295817       20.2892300289  IM1H      73              0.0000000000
      1451        73  IM1H      C3             28.3988152874       17.5503438909       20.3871626816  IM1H      73              0.0000000000
      1452        73  IM1H      DC3            28.3702490595       17.5767855433       20.3875906885  IM1H      73              0.0000000000
      1453        73  IM1H      H5             29.3203987138       18.1138704832       20.4646918249  IM1H      73              0.0000000000
      1454        73  IM1H      C4             27.0765246701       15.7464351603       20.2374174138  IM1H      73              0.0000000000
      1455        73  IM1H      DC4            27.0329324209       15.8355674763       20.2102151977  IM1H      73              0.0000000000
      1456        73  IM1H      H6             26.7464724654       14.7096203811       20.3020754049  IM1H      73              0.0000000000
      1457        73  IM1H      N2             28.3564143891       16.1684450102       20.3322981299  IM1H      73              0.0000000000
      1458        73  IM1H      DN2            28.3449556415       16.1921059626       20.3277304141  IM1H      73              0.0000000000
      1459        73  IM1H      H7             29.1492524768       15.5643085257       20.4124659207  IM1H      73              0.0000000000
      1460        73  IM1H      LPN21          28.5933521291       15.9845922349       20.3399573970  IM1H      73              0.0000000000
      1461        74  IM1H      C1             13.0725039893       28.2398329527      -15.1856302134  IM1H      74              0.0000000000
      1462        74  IM1H      DC1            13.0571665516       28.2012912929      -15.1907821339  IM1H      74              0.0000000000
      1463        74  IM1H      H1             12.3878139411       28.4970478232      -14.3493521206  IM1H      74              0.0000000000
      1464        74  IM1H      H2             12.7531267664       28.7551665847      -16.1166245411  IM1H      74              0.0000000000
      1465        74  IM1H      H3             14.1021698485       28.5642138427      -14.9231682983  IM1H      74              0.0000000000
      1466        74  IM1H      N1             13.0452409831       26.7841537893      -15.4012624792  IM1H      74              0.0000000000
      1467        74  IM1H      DN1            13.0387591112       26.7501167621      -15.4055270649  IM1H      74              0.0000000000
      1468        74  IM1H      C2             11.9236782412       26.0625740880      -15.7361582112  IM1H      74              0.0000000000
      1469        74  IM1H      DC2            11.9393669145       26.0613378891      -15.7304521691  IM1H      74              0.0000000000
      1470        74  IM1H      H4             10.9520536450       26.5146948516      -15.8924318786  IM1H      74              0.0000000000
      1471        74  IM1H      C3             12.3125925813       24.7554386926      -15.8252094677  IM1H      74              0.0000000000
      1472        74  IM1H      DC3            12.3053359357       24.7498122575      -15.8328540371  IM1H      74              0.0000000000
      1473        74  IM1H      H5             11.7239627668       23.8780370793      -16.0630546915  IM1H      74              0.0000000000
      1474        74  IM1H      C4             14.1053132426       25.9700650681      -15.2758326051  IM1H      74              0.0000000000
      1475        74  IM1H      DC4            14.0786642772       25.9807650113      -15.2762839207  IM1H      74              0.0000000000
      1476        74  IM1H      H6             15.1159507876       26.2832039230      -15.0138100675  IM1H      74              0.0000000000
      1477        74  IM1H      N2             13.6634805142       24.7222057535      -15.5342072210  IM1H      74              0.0000000000
      1478        74  IM1H      DN2            13.6552382662       24.7212858128      -15.5369314500  IM1H      74              0.0000000000
      1479        74  IM1H      H7             14.2039546338       23.8832047566      -15.4712385452  IM1H      74              0.0000000000
      1480        74  IM1H      LPN21          13.8370948226       24.4776263171      -15.5279645276  IM1H      74              0.0000000000
      1481        75  IM1H      C1             16.3097101998       -2.9704310584        8.2071605243  IM1H      75              0.0000000000
      1482        75  IM1H      DC1            16.3001100182       -3.0080568869        8.1948106092  IM1H      75              0.0000000000
      1483        75  IM1H      H1             15.4050342838       -2.7543005471        8.8147542118  IM1H      75              0.0000000000
      1484        75  IM1H      H2             16.1799520384       -2.5913477317        7.1709271277  IM1H      75              0.0000000000
      1485        75  IM1H      H3             17.1859837035       -2.4755313512        8.6778409117  IM1H      75              0.0000000000
      1486        75  IM1H      N1             16.5282910275       -4.4240998565        8.1607177285  IM1H      75              0.0000000000
      1487        75  IM1H      DN1            16.5279925980       -4.4570318599        8.1568985648  IM1H      75              0.0000000000
      1488        75  IM1H      C2             15.6196437651       -5.3413066062        7.6854065707  IM1H      75              0.0000000000
      1489        75  IM1H      DC2            15.6318706099       -5.3327416084        7.6824941348  IM1H      75              0.0000000000
      1490        75  IM1H      H4             14.6340529369       -5.0698603912        7.3278919952  IM1H      75              0.0000000000
      1491        75  IM1H      C3             16.2007889644       -6.5721364112        7.8164375062  IM1H      75              0.0000000000
      1492        75  IM1H      DC3            16.2056863279       -6.5739735478        7.7958397856  IM1H      75              0.0000000000
      1493        75  IM1H      H5             15.7774328548       -7.5507922258        7.6269872463  IM1H      75              0.0000000000
      1494        75  IM1H      C4             17.6447575400       -5.0412509385        8.5745721612  IM1H      75              0.0000000000
      1495        75  IM1H      DC4            17.6138791873       -5.0400088729        8.5676854399  IM1H      75              0.0000000000
      1496        75  IM1H      H6             18.5203442665       -4.5471525060        8.9956595907  IM1H      75              0.0000000000
      1497        75  IM1H      N2             17.4520368991       -6.3591978662        8.3640840595  IM1H      75              0.0000000000
      1498        75  IM1H      DN2            17.4531836336       -6.3703473914        8.3647451366  IM1H      75              0.0000000000
      1499        75  IM1H      H7             18.1184874673       -7.0800482787        8.5543951813  IM1H      75              0.0000000000
      1500        75  IM1H      LPN21          17.6547353289       -6.5707258563        8.4286538354  IM1H      75              0.0000000000
      1501        76  IM1H      C1             17.0308127961       19.4218758566      -16.9100188296  IM1H      76              0.0000000000
      1502        76  IM1H      DC1            17.0111056131       19.4142445275      -16.9064808027  IM1H      76              0.0000000000
      1503        76  IM1H      H1             16.9776414488       19.9001286877      -17.9114018929  IM1H      76              0.0000000000
      1504        76  IM1H      H2             17.7311582633       19.9941509272      -16.2647758742  IM1H      76              0.0000000000
      1505        76  IM1H      H3             16.0231786852       19.3781189846      -16.4441005592  IM1H      76              0.0000000000
      1506        76  IM1H      N1             17.5648804982       18.0622327741      -17.0691754201  IM1H      76              0.0000000000
      1507        76  IM1H      DN1            17.5555118479       18.0515745637      -17.0668543022  IM1H      76              0.0000000000
      1508        76  IM1H      C2             18.8097797926       17.7919065499      -17.5783461574  IM1H      76              0.0000000000
      1509        76  IM1H      DC2            18.7603122473       17.7858622112      -17.5628681491  IM1H      76              0.0000000000
      1510        76  IM1H      H4             19.5073944860       18.5638332280      -17.8789321571  IM1H      76              0.0000000000
      1511        76  IM1H      C3             18.9509769678       16.4309313493      -17.5568518419  IM1H      76              0.0000000000
      1512        76  IM1H      DC3            18.9381966083       16.4363132083      -17.5683035976  IM1H      76              0.0000000000
      1513        76  IM1H      H5             19.7942348084       15.8252486408      -17.8649973773  IM1H      76              0.0000000000
      1514        76  IM1H      C4             16.9377972839       16.9231844626      -16.7281002666  IM1H      76              0.0000000000
      1515        76  IM1H      DC4            16.9157465319       16.9658778193      -16.7347789330  IM1H      76              0.0000000000
      1516        76  IM1H      H6             15.9508247544       16.8364974433      -16.2737099205  IM1H      76              0.0000000000
      1517        76  IM1H      N2             17.7861798023       15.9159259867      -17.0171467669  IM1H      76              0.0000000000
      1518        76  IM1H      DN2            17.7632656030       15.9341879608      -17.0324640006  IM1H      76              0.0000000000
      1519        76  IM1H      H7             17.7175840191       14.9769737627      -16.6800068262  IM1H      76              0.0000000000
      1520        76  IM1H      LPN21          17.7258586563       15.6259611131      -16.9693792947  IM1H      76              0.0000000000
      1521        77  IM1H      C1             21.4919787062       -4.8573179998       19.2493845063  IM1H      77              0.0000000000
      1522        77  IM1H      DC1            21.5069752560       -4.8472493913       19.2498092450  IM1H      77              0.0000000000
      1523        77  IM1H      H1             21.3170751577       -4.5110394798       18.2083172965  IM1H      77              0.0000000000
      1524        77  IM1H      H2             20.6186390194       -4.6204033599       19.8939543210  IM1H      77              0.0000000000
      1525        77  IM1H      H3             21.6751862920       -5.9530895846       19.2557574881  IM1H      77              0.0000000000
      1526        77  IM1H      N1             22.6667861038       -4.1567335790       19.7774641682  IM1H      77              0.0000000000
      1527        77  IM1H      DN1            22.6868033236       -4.1520806587       19.7849039181  IM1H      77              0.0000000000
      1528        77  IM1H      C2             22.7919859547       -2.7917248420       19.8615990432  IM1H      77              0.0000000000
      1529        77  IM1H      DC2            22.7936962799       -2.8293024140       19.8663097482  IM1H      77              0.0000000000
      1530        77  IM1H      H4             22.0210386629       -2.0933924328       19.5601672606  IM1H      77              0.0000000000
      1531        77  IM1H      C3             24.0634976105       -2.5414909966       20.3001782437  IM1H      77              0.0000000000
      1532        77  IM1H      DC3            24.0614828505       -2.5530597260       20.3105719395  IM1H      77              0.0000000000
      1533        77  IM1H      H5             24.5415567075       -1.5857057121       20.4757430169  IM1H      77              0.0000000000
      1534        77  IM1H      C4             23.8126563077       -4.7518842169       20.1309695656  IM1H      77              0.0000000000
      1535        77  IM1H      DC4            23.7868874048       -4.7508299990       20.1344933760  IM1H      77              0.0000000000
      1536        77  IM1H      H6             24.0014209500       -5.8249486761       20.0993376808  IM1H      77              0.0000000000
      1537        77  IM1H      N2             24.6791580714       -3.7695080750       20.4517339350  IM1H      77              0.0000000000
      1538        77  IM1H      DN2            24.6684636292       -3.7764592500       20.4673184551  IM1H      77              0.0000000000
      1539        77  IM1H      H7             25.6711194054       -3.8843707952       20.5048307077  IM1H      77              0.0000000000
      1540        77  IM1H      LPN21          24.9614899566       -3.8163522261       20.5417024410  IM1H      77              0.0000000000
      1541        78  IM1H      C1             17.5815578302        0.6113894704      -26.5178076665  IM1H      78              0.0000000000
      1542        78  IM1H      DC1            17.5614500689        0.6332736914      -26.5405410171  IM1H      78              0.0000000000
      1543        78  IM1H      H1             17.8041830632       -0.3614795202      -27.0059520443  IM1H      78              0.0000000000
      1544        78  IM1H      H2             17.1546900111        0.4333269640      -25.5076598509  IM1H      78              0.0000000000
      1545        78  IM1H      H3             18.5140980367        1.2086215764      -26.4283449656  IM1H      78              0.0000000000
      1546        78  IM1H      N1             16.5962035260        1.3411570140      -27.3297024857  IM1H      78              0.0000000000
      1547        78  IM1H      DN1            16.5768463872        1.3627172997      -27.3478613910  IM1H      78              0.0000000000
      1548        78  IM1H      C2             15.3310417761        0.8796446291      -27.6082303365  IM1H      78              0.0000000000
      1549        78  IM1H      DC2            15.3541817738        0.9049534422      -27.6180292039  IM1H      78              0.0000000000
      1550        78  IM1H      H4             14.9575814474       -0.0729153846      -27.2532010352  IM1H      78              0.0000000000
      1551        78  IM1H      C3             14.7011885950        1.8672656856      -28.3156202061  IM1H      78              0.0000000000
      1552        78  IM1H      DC3            14.6965307814        1.8744950412      -28.3286678019  IM1H      78              0.0000000000
      1553        78  IM1H      H5             13.6810316170        1.8926730075      -28.6782814938  IM1H      78              0.0000000000
      1554        78  IM1H      C4             16.7683444237        2.5719861318      -27.8397417180  IM1H      78              0.0000000000
      1555        78  IM1H      DC4            16.7648103071        2.5576049395      -27.8282675005  IM1H      78              0.0000000000
      1556        78  IM1H      H6             17.6744647651        3.1725492282      -27.7599301020  IM1H      78              0.0000000000
      1557        78  IM1H      N2             15.6102020679        2.9011884948      -28.4482519439  IM1H      78              0.0000000000
      1558        78  IM1H      DN2            15.6065294585        2.9048893633      -28.4499685481  IM1H      78              0.0000000000
      1559        78  IM1H      H7             15.4278291775        3.7604334854      -28.9262040073  IM1H      78              0.0000000000
      1560        78  IM1H      LPN21          15.5626905183        3.1614326262      -28.5897286017  IM1H      78              0.0000000000
      1561        79  IM1H      C1            -10.3035101571       16.8019974095      -17.5375541846  IM1H      79              0.0000000000
      1562        79  IM1H      DC1           -10.3033756910       16.8028422761      -17.5386659487  IM1H      79              0.0000000000
      1563        79  IM1H      H1             -9.2749199870       16.3835987714      -17.5019755104  IM1H      79              0.0000000000
      1564        79  IM1H      H2            -10.4651720709       17.3287242124      -18.5023056038  IM1H      79              0.0000000000
      1565        79  IM1H      H3            -11.0550269060       15.9905925524      -17.4318861421  IM1H      79              0.0000000000
      1566        79  IM1H      N1            -10.4544834202       17.7621790749      -16.4380985765  IM1H      79              0.0000000000
      1567        79  IM1H      DN1           -10.4552755013       17.7637469253      -16.4331808597  IM1H      79              0.0000000000
      1568        79  IM1H      C2             -9.6595203520       18.8662901150      -16.2383543636  IM1H      79              0.0000000000
      1569        79  IM1H      DC2            -9.6817554313       18.8295022744      -16.2255983999  IM1H      79              0.0000000000
      1570        79  IM1H      H4             -8.8809653708       19.1803066173      -16.9225581180  IM1H      79              0.0000000000
      1571        79  IM1H      C3            -10.0849008631       19.4489462239      -15.0757988117  IM1H      79              0.0000000000
      1572        79  IM1H      DC3           -10.0874938327       19.4439004824      -15.0781341331  IM1H      79              0.0000000000
      1573        79  IM1H      H5             -9.7080847934       20.3312823510      -14.5734228486  IM1H      79              0.0000000000
      1574        79  IM1H      C4            -11.3528104818       17.6472129726      -15.4487307778  IM1H      79              0.0000000000
      1575        79  IM1H      DC4           -11.3259518310       17.6426970459      -15.4853659738  IM1H      79              0.0000000000
      1576        79  IM1H      H6            -12.1234394890       16.8819943753      -15.3556102557  IM1H      79              0.0000000000
      1577        79  IM1H      N2            -11.1285488314       18.6747571657      -14.6057566331  IM1H      79              0.0000000000
      1578        79  IM1H      DN2           -11.1245980208       18.6709233517      -14.6155101984  IM1H      79              0.0000000000
      1579        79  IM1H      H7            -11.6185034383       18.8367294490      -13.7491882105  IM1H      79              0.0000000000
      1580        79  IM1H      LPN21         -11.2853172367       18.7231787054      -14.3546012597  IM1H      79              0.0000000000
      1581        80  IM1H      C1              2.2440911812       -5.6947238006      -21.8897658661  IM1H      80              0.0000000000
      1582        80  IM1H      DC1             2.2588402974       -5.7212886148      -21.9329863215  IM1H      80              0.0000000000
      1583        80  IM1H      H1              2.2229909465       -5.4101384205      -22.9634915953  IM1H      80              0.0000000000
      1584        80  IM1H      H2              3.1690999046       -5.3466977326      -21.3822644179  IM1H      80              0.0000000000
      1585        80  IM1H      H3              1.3684687067       -5.2462347246      -21.3735645183  IM1H      80              0.0000000000
      1586        80  IM1H      N1              2.1725044453       -7.1528457287      -21.7732437154  IM1H      80              0.0000000000
      1587        80  IM1H      DN1             2.1743889785       -7.1912986256      -21.7916773008  IM1H      80              0.0000000000
      1588        80  IM1H      C2              3.0448748231       -8.0315775401      -22.3698392426  IM1H      80              0.0000000000
      1589        80  IM1H      DC2             3.0440326620       -8.0277896453      -22.3757642104  IM1H      80              0.0000000000
      1590        80  IM1H      H4              3.8957728694       -7.7050152039      -22.9548337350  IM1H      80              0.0000000000
      1591        80  IM1H      C3              2.6151607245       -9.2892491824      -22.0481198665  IM1H      80              0.0000000000
      1592        80  IM1H      DC3             2.6283223020       -9.2964247389      -22.0511720318  IM1H      80              0.0000000000
      1593        80  IM1H      H5              3.0306092572      -10.2494720570      -22.3278760960  IM1H      80              0.0000000000
      1594        80  IM1H      C4              1.2294291500       -7.8143786234      -21.0903720405  IM1H      80              0.0000000000
      1595        80  IM1H      DC4             1.2434439429       -7.8288732552      -21.1276958716  IM1H      80              0.0000000000
      1596        80  IM1H      H6              0.5011789140       -7.3273279798      -20.4418866788  IM1H      80              0.0000000000
      1597        80  IM1H      N2              1.4892965642       -9.1295232499      -21.2594503931  IM1H      80              0.0000000000
      1598        80  IM1H      DN2             1.4976105784       -9.1456024775      -21.2589483121  IM1H      80              0.0000000000
      1599        80  IM1H      H7              0.9549321493       -9.8838600866      -20.8780967398  IM1H      80              0.0000000000
      1600        80  IM1H      LPN21           1.3239197590       -9.3500923504      -21.1411297093  IM1H      80              0.0000000000
      1601        81  IM1H      C1            -20.0065206805        3.1306225863       -6.6207170907  IM1H      81              0.0000000000
      1602        81  IM1H      DC1           -20.0018509698        3.1049020047       -6.6194257278  IM1H      81              0.0000000000
      1603        81  IM1H      H1            -19.8021395548        4.1848081645       -6.3356870556  IM1H      81              0.0000000000
      1604        81  IM1H      H2            -20.6452465868        2.6512789557       -5.8483312397  IM1H      81              0.0000000000
      1605        81  IM1H      H3            -20.5221377186        3.1037756089       -7.6044545098  IM1H      81              0.0000000000
      1606        81  IM1H      N1            -18.7232800497        2.4093873446       -6.7109972230  IM1H      81              0.0000000000
      1607        81  IM1H      DN1           -18.7102227277        2.3909808880       -6.7177178608  IM1H      81              0.0000000000
      1608        81  IM1H      C2            -17.8608591868        2.2650597568       -5.6523142503  IM1H      81              0.0000000000
      1609        81  IM1H      DC2           -17.8800365190        2.2381894923       -5.6979992430  IM1H      81              0.0000000000
      1610        81  IM1H      H4            -18.0182819563        2.7403115970       -4.6919795378  IM1H      81              0.0000000000
      1611        81  IM1H      C3            -16.7944152145        1.5433736575       -6.1123285350  IM1H      81              0.0000000000
      1612        81  IM1H      DC3           -16.8129703690        1.5360965409       -6.0984694991  IM1H      81              0.0000000000
      1613        81  IM1H      H5            -15.8610630617        1.2644151595       -5.6391214818  IM1H      81              0.0000000000
      1614        81  IM1H      C4            -18.2182622738        1.8129722319       -7.8104996005  IM1H      81              0.0000000000
      1615        81  IM1H      DC4           -18.2432746103        1.8277417235       -7.8100628942  IM1H      81              0.0000000000
      1616        81  IM1H      H6            -18.6983268756        1.8043525580       -8.7890514282  IM1H      81              0.0000000000
      1617        81  IM1H      N2            -17.0231208894        1.2883717077       -7.4472166526  IM1H      81              0.0000000000
      1618        81  IM1H      DN2           -17.0640331034        1.3025784800       -7.4471166650  IM1H      81              0.0000000000
      1619        81  IM1H      H7            -16.2603358694        0.9262311102       -7.9829527826  IM1H      81              0.0000000000
      1620        81  IM1H      LPN21         -16.8392634001        1.1400372762       -7.6321310113  IM1H      81              0.0000000000
      1621        82  IM1H      C1            -12.3109863733       10.7712902854      -11.5371521654  IM1H      82              0.0000000000
      1622        82  IM1H      DC1           -12.2581377134       10.7225386094      -11.5690726565  IM1H      82              0.0000000000
      1623        82  IM1H      H1            -13.3653483764       10.4307273176      -11.4555517238  IM1H      82              0.0000000000
      1624        82  IM1H      H2            -12.2381916560       11.5332082630      -12.3424489595  IM1H      82              0.0000000000
      1625        82  IM1H      H3            -12.0029353782       11.2206849302      -10.5689218015  IM1H      82              0.0000000000
      1626        82  IM1H      N1            -11.4673564501        9.6180147283      -11.8573045601  IM1H      82              0.0000000000
      1627        82  IM1H      DN1           -11.4370171656        9.5662606246      -11.8851617741  IM1H      82              0.0000000000
      1628        82  IM1H      C2            -11.6202190689        8.8278793482      -12.9725965344  IM1H      82              0.0000000000
      1629        82  IM1H      DC2           -11.6025923549        8.7999778375      -12.9783201498  IM1H      82              0.0000000000
      1630        82  IM1H      H4            -12.3546189931        9.0706033088      -13.7306406164  IM1H      82              0.0000000000
      1631        82  IM1H      C3            -10.7241717721        7.8008347722      -12.8504267386  IM1H      82              0.0000000000
      1632        82  IM1H      DC3           -10.7286101737        7.7635050064      -12.8746861650  IM1H      82              0.0000000000
      1633        82  IM1H      H5            -10.5152249545        6.9768178954      -13.5214158713  IM1H      82              0.0000000000
      1634        82  IM1H      C4            -10.5203980436        9.1164028331      -11.0531718654  IM1H      82              0.0000000000
      1635        82  IM1H      DC4           -10.5342121080        9.0956348211      -11.0907504544  IM1H      82              0.0000000000
      1636        82  IM1H      H6            -10.2106390902        9.5387079521      -10.0972389299  IM1H      82              0.0000000000
      1637        82  IM1H      N2            -10.0604495776        8.0032404999      -11.6549043099  IM1H      82              0.0000000000
      1638        82  IM1H      DN2           -10.0598488847        7.9754061875      -11.6777873952  IM1H      82              0.0000000000
      1639        82  IM1H      H7             -9.3425250566        7.4230948085      -11.2701766674  IM1H      82              0.0000000000
      1640        82  IM1H      LPN21          -9.8448464714        7.8285247386      -11.5409319301  IM1H      82              0.0000000000
      1641        83  IM1H      C1            -10.3248045764      -11.9645816643       15.9649854807  IM1H      83              0.0000000000
      1642        83  IM1H      DC1           -10.3293495455      -11.9997431025       15.9400336456  IM1H      83              0.0000000000
      1643        83  IM1H      H1             -9.8009496702      -11.4682147349       15.1202861791  IM1H      83              0.0000000000
      1644        83  IM1H      H2            -10.0089191220      -11.4788891710       16.9129518207  IM1H      83              0.0000000000
      1645        83  IM1H      H3            -11.4258767597      -11.8698289424       15.8510426466  IM1H      83              0.0000000000
      1646        83  IM1H      N1             -9.9346454171      -13.3785503957       16.0159310356  IM1H      83              0.0000000000
      1647        83  IM1H      DN1            -9.9318133210      -13.4113385669       16.0090390142  IM1H      83              0.0000000000
      1648        83  IM1H      C2             -8.6489801950      -13.8205154944       16.2008336342  IM1H      83              0.0000000000
      1649        83  IM1H      DC2            -8.6769333514      -13.8166482069       16.1868944736  IM1H      83              0.0000000000
      1650        83  IM1H      H4             -7.8085917119      -13.1635421893       16.3879760236  IM1H      83              0.0000000000
      1651        83  IM1H      C3             -8.6879325622      -15.1833763557       16.1252177201  IM1H      83              0.0000000000
      1652        83  IM1H      DC3            -8.7018668842      -15.1888695032       16.1208272666  IM1H      83              0.0000000000
      1653        83  IM1H      H5             -7.8623781644      -15.8770265074       16.2262048718  IM1H      83              0.0000000000
      1654        83  IM1H      C4            -10.7636217911      -14.4152691813       15.8340778858  IM1H      83              0.0000000000
      1655        83  IM1H      DC4           -10.7721042854      -14.3928999065       15.8299564458  IM1H      83              0.0000000000
      1656        83  IM1H      H6            -11.8399768415      -14.3484437297       15.6756665085  IM1H      83              0.0000000000
      1657        83  IM1H      N2            -10.0062083976      -15.5270427909       15.8971203153  IM1H      83              0.0000000000
      1658        83  IM1H      DN2           -10.0131440014      -15.5298828661       15.8957228605  IM1H      83              0.0000000000
      1659        83  IM1H      H7            -10.3347372729      -16.4682183919       15.8180174321  IM1H      83              0.0000000000
      1660        83  IM1H      LPN21         -10.1135319270      -15.8054033215       15.8655438208  IM1H      83              0.0000000000
      1661        84  IM1H      C1            -19.2786569163      -23.7413063219       -5.0342800875  IM1H      84              0.0000000000
      1662        84  IM1H      DC1           -19.2868154673      -23.7605199280       -5.0428304272  IM1H      84              0.0000000000
      1663        84  IM1H      H1            -19.8830987708      -22.8347769352       -4.8170808321  IM1H      84              0.0000000000
      1664        84  IM1H      H2            -19.6665888496      -24.2779419761       -5.9263854567  IM1H      84              0.0000000000
      1665        84  IM1H      H3            -18.2188825573      -23.4497350151       -5.1960993743  IM1H      84              0.0000000000
      1666        84  IM1H      N1            -19.3620745363      -24.6314395949       -3.8706981856  IM1H      84              0.0000000000
      1667        84  IM1H      DN1           -19.3648623508      -24.6516081441       -3.8645976625  IM1H      84              0.0000000000
      1668        84  IM1H      C2            -20.5244772646      -25.1963024413       -3.4038196293  IM1H      84              0.0000000000
      1669        84  IM1H      DC2           -20.5032520886      -25.1986903626       -3.4181220011  IM1H      84              0.0000000000
      1670        84  IM1H      H4            -21.4974292943      -25.0108179027       -3.8418251474  IM1H      84              0.0000000000
      1671        84  IM1H      C3            -20.1835280851      -25.9381795811       -2.3071775109  IM1H      84              0.0000000000
      1672        84  IM1H      DC3           -20.1872603178      -25.9500916164       -2.3142520851  IM1H      84              0.0000000000
      1673        84  IM1H      H5            -20.8192611316      -26.5089430840       -1.6416239686  IM1H      84              0.0000000000
      1674        84  IM1H      C4            -18.3216698493      -24.9968198998       -3.1072759381  IM1H      84              0.0000000000
      1675        84  IM1H      DC4           -18.3428152880      -24.9986961135       -3.1334949192  IM1H      84              0.0000000000
      1676        84  IM1H      H6            -17.2881743118      -24.6797303190       -3.2467075403  IM1H      84              0.0000000000
      1677        84  IM1H      N2            -18.8180885468      -25.7982019485       -2.1432089384  IM1H      84              0.0000000000
      1678        84  IM1H      DN2           -18.8193301320      -25.8053247330       -2.1490370665  IM1H      84              0.0000000000
      1679        84  IM1H      H7            -18.3065355467      -26.1608308311       -1.3642263830  IM1H      84              0.0000000000
      1680        84  IM1H      LPN21         -18.6519980516      -25.9245567432       -1.9276899989  IM1H      84              0.0000000000
      1681        85  IM1H      C1            -25.5323249503       20.7866299540       10.5464290434  IM1H      85              0.0000000000
      1682        85  IM1H      DC1           -25.5649177433       20.8131882991       10.5632398960  IM1H      85              0.0000000000
      1683        85  IM1H      H1            -25.7607601234       20.0528950722        9.7440753212  IM1H      85              0.0000000000
      1684        85  IM1H      H2            -24.4317240610       20.8210147241       10.6941326993  IM1H      85              0.0000000000
      1685        85  IM1H      H3            -25.9206194478       21.7951093405       10.2885187668  IM1H      85              0.0000000000
      1686        85  IM1H      N1            -26.1389972448       20.3123042521       11.7956087415  IM1H      85              0.0000000000
      1687        85  IM1H      DN1           -26.1682588137       20.3294655026       11.8195760760  IM1H      85              0.0000000000
      1688        85  IM1H      C2            -25.8966266671       19.0707065806       12.3253874203  IM1H      85              0.0000000000
      1689        85  IM1H      DC2           -25.9324677448       19.1310130569       12.3376736961  IM1H      85              0.0000000000
      1690        85  IM1H      H4            -25.2548998380       18.3435021955       11.8434647512  IM1H      85              0.0000000000
      1691        85  IM1H      C3            -26.5991697249       19.0064514116       13.4985858071  IM1H      85              0.0000000000
      1692        85  IM1H      DC3           -26.6200540534       19.0285422604       13.5020579832  IM1H      85              0.0000000000
      1693        85  IM1H      H5            -26.6383797424       18.1997770317       14.2201313838  IM1H      85              0.0000000000
      1694        85  IM1H      C4            -26.9659317019       21.0137084722       12.5906167466  IM1H      85              0.0000000000
      1695        85  IM1H      DC4           -26.9777013813       21.0377832614       12.5697378852  IM1H      85              0.0000000000
      1696        85  IM1H      H6            -27.3050119480       22.0336350144       12.4093036603  IM1H      85              0.0000000000
      1697        85  IM1H      N2            -27.2484049478       20.2188053626       13.6433099413  IM1H      85              0.0000000000
      1698        85  IM1H      DN2           -27.2644442473       20.2389760207       13.6356489685  IM1H      85              0.0000000000
      1699        85  IM1H      H7            -27.7488946010       20.4652942897       14.4732215726  IM1H      85              0.0000000000
      1700        85  IM1H      LPN21         -27.4260411467       20.2984382721       13.8715729049  IM1H      85              0.0000000000
      1701        86  IM1H      C1             -2.6199738245      -20.4596343917       -5.2682403884  IM1H      86              0.0000000000
      1702        86  IM1H      DC1            -2.6452853885      -20.5002201819       -5.2538506737  IM1H      86              0.0000000000
      1703        86  IM1H      H1             -1.9166779043      -21.0726036374       -5.8715351376  IM1H      86              0.0000000000
      1704        86  IM1H      H2             -2.2952656620      -20.4065521296       -4.2070769308  IM1H      86              0.0000000000
      1705        86  IM1H      H3             -2.6381544282      -19.4317821202       -5.6895599507  IM1H      86              0.0000000000
      1706        86  IM1H      N1             -3.9653774302      -21.0503584747       -5.3361602108  IM1H      86              0.0000000000
      1707        86  IM1H      DN1            -3.9997526757      -21.0473172112       -5.3463861848  IM1H      86              0.0000000000
      1708        86  IM1H      C2             -4.3157100582      -22.3176152974       -4.9249729400  IM1H      86              0.0000000000
      1709        86  IM1H      DC2            -4.3099447195      -22.2590632666       -4.9634796351  IM1H      86              0.0000000000
      1710        86  IM1H      H4             -3.6875927849      -23.0348936936       -4.4112907489  IM1H      86              0.0000000000
      1711        86  IM1H      C3             -5.6428804446      -22.4671252498       -5.2061914884  IM1H      86              0.0000000000
      1712        86  IM1H      DC3            -5.6507787471      -22.4272146354       -5.2404609506  IM1H      86              0.0000000000
      1713        86  IM1H      H5             -6.2542207950      -23.3271944124       -4.9624026219  IM1H      86              0.0000000000
      1714        86  IM1H      C4             -5.0298330204      -20.4144099737       -5.8464659805  IM1H      86              0.0000000000
      1715        86  IM1H      DC4            -5.0264128634      -20.4156171486       -5.8500525210  IM1H      86              0.0000000000
      1716        86  IM1H      H6             -5.0149934244      -19.3789509620       -6.1866195069  IM1H      86              0.0000000000
      1717        86  IM1H      N2             -6.0630886540      -21.2794269764       -5.7784012109  IM1H      86              0.0000000000
      1718        86  IM1H      DN2            -6.0722045112      -21.2616579323       -5.7895316184  IM1H      86              0.0000000000
      1719        86  IM1H      H7             -7.0133173105      -21.1070419324       -6.0379178711  IM1H      86              0.0000000000
      1720        86  IM1H      LPN21          -6.3404707588      -21.2177945247       -5.8746332680  IM1H      86              0.0000000000
      1721        87  IM1H      C1            -22.5060742464       12.6432371980      -21.2222840478  IM1H      87              0.0000000000
      1722        87  IM1H      DC1           -22.5591467935       12.6254870787      -21.2527608066  IM1H      87              0.0000000000
      1723        87  IM1H      H1            -22.3084620768       13.5785172729      -21.7884303292  IM1H      87              0.0000000000
      1724        87  IM1H      H2            -21.7863635019       11.8577209901      -21.5374058233  IM1H      87              0.0000000000
      1725        87  IM1H      H3            -22.3573570862       12.8395684829      -20.1389289659  IM1H      87              0.0000000000
      1726        87  IM1H      N1            -23.8830183671       12.1822469724      -21.4923474181  IM1H      87              0.0000000000
      1727        87  IM1H      DN1           -23.9242714863       12.1675701967      -21.4951536383  IM1H      87              0.0000000000
      1728        87  IM1H      C2            -24.4039324316       11.9079493172      -22.7378987753  IM1H      87              0.0000000000
      1729        87  IM1H      DC2           -24.4052816752       11.9001889951      -22.7106798855  IM1H      87              0.0000000000
      1730        87  IM1H      H4            -23.8582499971       12.0557403678      -23.6616289773  IM1H      87              0.0000000000
      1731        87  IM1H      C3            -25.6921205059       11.4852978201      -22.5411869067  IM1H      87              0.0000000000
      1732        87  IM1H      DC3           -25.6950563347       11.4775742274      -22.5379568158  IM1H      87              0.0000000000
      1733        87  IM1H      H5            -26.4309193205       11.1896244446      -23.2757905867  IM1H      87              0.0000000000
      1734        87  IM1H      C4            -24.8018712908       11.9459444507      -20.5441014148  IM1H      87              0.0000000000
      1735        87  IM1H      DC4           -24.7937999352       11.9495296920      -20.5518391215  IM1H      87              0.0000000000
      1736        87  IM1H      H6            -24.6419818104       12.0811636412      -19.4744046706  IM1H      87              0.0000000000
      1737        87  IM1H      N2            -25.9152782804       11.5184496521      -21.1760501409  IM1H      87              0.0000000000
      1738        87  IM1H      DN2           -25.9167514658       11.5181861519      -21.1780758037  IM1H      87              0.0000000000
      1739        87  IM1H      H7            -26.7703535304       11.2529654206      -20.7306689113  IM1H      87              0.0000000000
      1740        87  IM1H      LPN21         -26.1698989569       11.4433304468      -21.0363167658  IM1H      87              0.0000000000
      1741        88  IM1H      C1             -1.5545081359       21.9454956386      -15.1433452561  IM1H      88              0.0000000000
      1742        88  IM1H      DC1            -1.5472596022       21.9798955111      -15.1273542988  IM1H      88              0.0000000000
      1743        88  IM1H      H1             -2.1354498614       21.2808387932      -15.8179258587  IM1H      88              0.0000000000
      1744        88  IM1H      H2             -1.1678176167       21.3532801819      -14.2865650639  IM1H      88              0.0000000000
      1745        88  IM1H      H3             -0.7064628929       22.4170502576      -15.6844335188  IM1H      88              0.0000000000
      1746        88  IM1H      N1             -2.4531593721       22.9884107002      -14.6425200024  IM1H      88              0.0000000000
      1747        88  IM1H      DN1            -2.4558517587       23.0184486008      -14.6301975951  IM1H      88              0.0000000000
      1748        88  IM1H      C2             -3.5894105694       22.7340886151      -13.9157537487  IM1H      88              0.0000000000
      1749        88  IM1H      DC2            -3.5449399149       22.7675871426      -13.9085770908  IM1H      88              0.0000000000
      1750        88  IM1H      H4             -3.9660143650       21.7333454738      -13.7437893730  IM1H      88              0.0000000000
      1751        88  IM1H      C3             -4.1359818712       23.9512074734      -13.6095002217  IM1H      88              0.0000000000
      1752        88  IM1H      DC3            -4.1161677674       23.9619646933      -13.5974729416  IM1H      88              0.0000000000
      1753        88  IM1H      H5             -5.0541967423       24.1684430830      -13.0779184874  IM1H      88              0.0000000000
      1754        88  IM1H      C4             -2.2843790921       24.3112026004      -14.8084363073  IM1H      88              0.0000000000
      1755        88  IM1H      DC4            -2.2649743258       24.2961518935      -14.8040186865  IM1H      88              0.0000000000
      1756        88  IM1H      H6             -1.5010017936       24.7837113168      -15.4010200744  IM1H      88              0.0000000000
      1757        88  IM1H      N2             -3.3159536495       24.9097475327      -14.1775061945  IM1H      88              0.0000000000
      1758        88  IM1H      DN2            -3.3027808719       24.9120232420      -14.1760505888  IM1H      88              0.0000000000
      1759        88  IM1H      H7             -3.5405912840       25.8839022922      -14.2011797613  IM1H      88              0.0000000000
      1760        88  IM1H      LPN21          -3.3562648415       25.2067855765      -14.1655308718  IM1H      88              0.0000000000
      1761        89  IM1H      C1             12.0849523202       -6.6687267701       -4.9399919709  IM1H      89              0.0000000000
      1762        89  IM1H      DC1            12.0890790337       -6.6711026591       -4.9416522808  IM1H      89              0.0000000000
      1763        89  IM1H      H1             12.6058455617       -6.1038508889       -5.7424298011  IM1H      89              0.0000000000
      1764        89  IM1H      H2             11.3117671344       -7.3365396185       -5.3764913015  IM1H      89              0.0000000000
      1765        89  IM1H      H3             12.8127561770       -7.2699467249       -4.3541958351  IM1H      89              0.0000000000
      1766        89  IM1H      N1             11.4212667323       -5.7140539819       -4.0458961040  IM1H      89              0.0000000000
      1767        89  IM1H      DN1            11.4148103859       -5.7099062431       -4.0600313449  IM1H      89              0.0000000000
      1768        89  IM1H      C2             10.3566042273       -4.9182880843       -4.3933182062  IM1H      89              0.0000000000
      1769        89  IM1H      DC2            10.3789712798       -4.9360627826       -4.3932260262  IM1H      89              0.0000000000
      1770        89  IM1H      H4              9.9350178135       -4.8844981956       -5.3903197805  IM1H      89              0.0000000000
      1771        89  IM1H      C3             10.0241580992       -4.2022599232       -3.2751264598  IM1H      89              0.0000000000
      1772        89  IM1H      DC3            10.0238347349       -4.2091554482       -3.2938952485  IM1H      89              0.0000000000
      1773        89  IM1H      H5              9.2350562110       -3.4761394609       -3.1236131459  IM1H      89              0.0000000000
      1774        89  IM1H      C4             11.7562886620       -5.5091854722       -2.7692079933  IM1H      89              0.0000000000
      1775        89  IM1H      DC4            11.7140495080       -5.5703921125       -2.8379591753  IM1H      89              0.0000000000
      1776        89  IM1H      H6             12.6293615291       -5.8756768785       -2.2292748328  IM1H      89              0.0000000000
      1777        89  IM1H      N2             10.9144493602       -4.5735437916       -2.2915619021  IM1H      89              0.0000000000
      1778        89  IM1H      DN2            10.8858829852       -4.5942737392       -2.3145986468  IM1H      89              0.0000000000
      1779        89  IM1H      H7             11.1669054347       -4.0414588870       -1.4833839608  IM1H      89              0.0000000000
      1780        89  IM1H      LPN21          10.9237651587       -4.4655403419       -2.0118326209  IM1H      89              0.0000000000
      1781        90  IM1H      C1             27.7994763344       18.9242434581        8.4617473051  IM1H      90              0.0000000000
      1782        90  IM1H      DC1            27.7787911377       18.9523339217        8.4628410996  IM1H      90              0.0000000000
      1783        90  IM1H      H1             28.5947115658       19.0422431622        9.2285575786  IM1H      90              0.0000000000
      1784        90  IM1H      H2             28.2588944203       18.7231718390        7.4703713792  IM1H      90              0.0000000000
      1785        90  IM1H      H3             27.1339417584       18.0801502885        8.7426235220  IM1H      90              0.0000000000
      1786        90  IM1H      N1             27.0188833042       20.1670749463        8.3805772472  IM1H      90              0.0000000000
      1787        90  IM1H      DN1            27.0056876424       20.1967018877        8.3824343417  IM1H      90              0.0000000000
      1788        90  IM1H      C2             27.5464120994       21.3956886560        8.0677971707  IM1H      90              0.0000000000
      1789        90  IM1H      DC2            27.5314949693       21.3902096212        8.0798827047  IM1H      90              0.0000000000
      1790        90  IM1H      H4             28.5931189056       21.5382725923        7.8291265130  IM1H      90              0.0000000000
      1791        90  IM1H      C3             26.5030663632       22.2784551612        8.0626754641  IM1H      90              0.0000000000
      1792        90  IM1H      DC3            26.5071402923       22.3087803252        8.0772538024  IM1H      90              0.0000000000
      1793        90  IM1H      H5             26.5095494991       23.3359951199        7.8293169319  IM1H      90              0.0000000000
      1794        90  IM1H      C4             25.6961870085       20.2597018886        8.5692312382  IM1H      90              0.0000000000
      1795        90  IM1H      DC4            25.7229181791       20.2548917432        8.5974054340  IM1H      90              0.0000000000
      1796        90  IM1H      H6             25.0156726727       19.4266327640        8.7452882528  IM1H      90              0.0000000000
      1797        90  IM1H      N2             25.3676561283       21.5501578438        8.3676835211  IM1H      90              0.0000000000
      1798        90  IM1H      DN2            25.3721241755       21.5701686902        8.3995716278  IM1H      90              0.0000000000
      1799        90  IM1H      H7             24.4523669011       21.8100475531        8.0599450451  IM1H      90              0.0000000000
      1800        90  IM1H      LPN21          25.0881850562       21.6574210943        8.3874449724  IM1H      90              0.0000000000
      1801        91  IM1H      C1              9.6601509974        2.6875826702       25.2853330698  IM1H      91              0.0000000000
      1802        91  IM1H      DC1             9.6621254797        2.6667440233       25.2966339822  IM1H      91              0.0000000000
      1803        91  IM1H      H1             10.6647222659        2.3391070188       24.9632736199  IM1H      91              0.0000000000
      1804        91  IM1H      H2              9.6521815828        3.7884689432       25.4346880247  IM1H      91              0.0000000000
      1805        91  IM1H      H3              8.9046660715        2.4009080845       24.5228494905  IM1H      91              0.0000000000
      1806        91  IM1H      N1              9.3332450058        2.0387611012       26.5558954285  IM1H      91              0.0000000000
      1807        91  IM1H      DN1             9.3331201824        2.0289433307       26.5873487870  IM1H      91              0.0000000000
      1808        91  IM1H      C2             10.0814484489        2.1523410680       27.7020209492  IM1H      91              0.0000000000
      1809        91  IM1H      DC2            10.0754927401        2.1465523240       27.7023803192  IM1H      91              0.0000000000
      1810        91  IM1H      H4             10.9673806517        2.7733323508       27.7508365169  IM1H      91              0.0000000000
      1811        91  IM1H      C3              9.4884889611        1.3478194458       28.6367993888  IM1H      91              0.0000000000
      1812        91  IM1H      DC3             9.4963146481        1.3514457743       28.6551382182  IM1H      91              0.0000000000
      1813        91  IM1H      H5              9.7833805676        1.1500894667       29.6599468844  IM1H      91              0.0000000000
      1814        91  IM1H      C4              8.3084585657        1.1978995528       26.7454369282  IM1H      91              0.0000000000
      1815        91  IM1H      DC4             8.3341851032        1.2203083219       26.7488879415  IM1H      91              0.0000000000
      1816        91  IM1H      H6              7.5834071233        0.8841890762       25.9944468199  IM1H      91              0.0000000000
      1817        91  IM1H      N2              8.3926786072        0.7696117159       28.0208885897  IM1H      91              0.0000000000
      1818        91  IM1H      DN2             8.4040002564        0.7771292748       28.0329371645  IM1H      91              0.0000000000
      1819        91  IM1H      H7              7.7931673286        0.0753861175       28.4191812526  IM1H      91              0.0000000000
      1820        91  IM1H      LPN21           8.1996064755        0.5775359894       28.1467061849  IM1H      91              0.0000000000
      1821        92  IM1H      C1            -11.1473577184      -20.7875411486       -0.2174925667  IM1H      92              0.0000000000
      1822        92  IM1H      DC1           -11.1344833261      -20.7417154292       -0.2203646187  IM1H      92              0.0000000000
      1823        92  IM1H      H1            -11.9154922583      -20.8475889112       -1.0179203252  IM1H      92              0.0000000000
      1824        92  IM1H      H2            -11.5715763482      -21.1668210032        0.7367119956  IM1H      92              0.0000000000
      1825        92  IM1H      H3            -10.2716452873      -21.4064163212       -0.5080820689  IM1H      92              0.0000000000
      1826        92  IM1H      N1            -10.7432092271      -19.3833842093       -0.0402042834  IM1H      92              0.0000000000
      1827        92  IM1H      DN1           -10.7291795810      -19.3443873107       -0.0421763098  IM1H      92              0.0000000000
      1828        92  IM1H      C2            -11.6189329065      -18.3519347160        0.1991469536  IM1H      92              0.0000000000
      1829        92  IM1H      DC2           -11.5882719045      -18.3521185503        0.1922056132  IM1H      92              0.0000000000
      1830        92  IM1H      H4            -12.6857245494      -18.5005042978        0.3121587677  IM1H      92              0.0000000000
      1831        92  IM1H      C3            -10.8723895052      -17.2077172647        0.2561224555  IM1H      92              0.0000000000
      1832        92  IM1H      DC3           -10.8649905206      -17.1904665407        0.2631301843  IM1H      92              0.0000000000
      1833        92  IM1H      H5            -11.2121462859      -16.1912127104        0.4115985663  IM1H      92              0.0000000000
      1834        92  IM1H      C4             -9.4873801856      -18.9190854895       -0.1202731485  IM1H      92              0.0000000000
      1835        92  IM1H      DC4            -9.5038533490      -18.9179907989       -0.1317823799  IM1H      92              0.0000000000
      1836        92  IM1H      H6             -8.6006772832      -19.5272700422       -0.2990733519  IM1H      92              0.0000000000
      1837        92  IM1H      N2             -9.5564008982      -17.5828546626        0.0569472421  IM1H      92              0.0000000000
      1838        92  IM1H      DN2            -9.5592935661      -17.5744734790        0.0581487564  IM1H      92              0.0000000000
      1839        92  IM1H      H7             -8.7810649464      -16.9544621999       -0.0061168096  IM1H      92              0.0000000000
      1840        92  IM1H      LPN21          -9.3187793054      -17.3997743353        0.0527552961  IM1H      92              0.0000000000
      1841        93  IM1H      C1             22.6720539865      -13.2911689389       16.6184322018  IM1H      93              0.0000000000
      1842        93  IM1H      DC1            22.6754569589      -13.3032305331       16.6210762797  IM1H      93              0.0000000000
      1843        93  IM1H      H1             21.7088259138      -13.1113024898       17.1420358120  IM1H      93              0.0000000000
      1844        93  IM1H      H2             22.5366915899      -13.1944104568       15.5199624404  IM1H      93              0.0000000000
      1845        93  IM1H      H3             23.4401194728      -12.5693856925       16.9697516506  IM1H      93              0.0000000000
      1846        93  IM1H      N1             23.1114360351      -14.6577064449       16.9059678462  IM1H      93              0.0000000000
      1847        93  IM1H      DN1            23.1185543327      -14.6777336792       16.9070506039  IM1H      93              0.0000000000
      1848        93  IM1H      C2             22.3819521738      -15.7822114505       16.6107013399  IM1H      93              0.0000000000
      1849        93  IM1H      DC2            22.4000923526      -15.7673375501       16.6096649413  IM1H      93              0.0000000000
      1850        93  IM1H      H4             21.3968421985      -15.7455335686       16.1622572861  IM1H      93              0.0000000000
      1851        93  IM1H      C3             23.1354168650      -16.8508457758       17.0082077872  IM1H      93              0.0000000000
      1852        93  IM1H      DC3            23.1352012715      -16.8546280668       17.0028920948  IM1H      93              0.0000000000
      1853        93  IM1H      H5             22.9066873196      -17.9082065271       16.9576109811  IM1H      93              0.0000000000
      1854        93  IM1H      C4             24.2830760262      -14.9891281048       17.4656398548  IM1H      93              0.0000000000
      1855        93  IM1H      DC4            24.2594397869      -14.9785080322       17.4537100721  IM1H      93              0.0000000000
      1856        93  IM1H      H6             25.0559054666      -14.2907714318       17.7867825232  IM1H      93              0.0000000000
      1857        93  IM1H      N2             24.3052109841      -16.3349132549       17.5326052061  IM1H      93              0.0000000000
      1858        93  IM1H      DN2            24.3046889876      -16.3359018023       17.5321547038  IM1H      93              0.0000000000
      1859        93  IM1H      H7             25.0571519312      -16.8894029880       17.8891524652  IM1H      93              0.0000000000
      1860        93  IM1H      LPN21          24.5332642524      -16.4936276110       17.6457487433  IM1H      93              0.0000000000
      1861        94  IM1H      C1            -18.5949170062        2.6843169889       25.5175851925  IM1H      94              0.0000000000
      1862        94  IM1H      DC1           -18.5938545105        2.6777066749       25.5210034267  IM1H      94              0.0000000000
      1863        94  IM1H      H1            -18.8067095254        2.8975839216       24.4480141823  IM1H      94              0.0000000000
      1864        94  IM1H      H2            -18.9334179999        3.5378609059       26.1430457100  IM1H      94              0.0000000000
      1865        94  IM1H      H3            -19.0996018490        1.7476850616       25.8374833683  IM1H      94              0.0000000000
      1866        94  IM1H      N1            -17.1459924535        2.5354786131       25.6812533009  IM1H      94              0.0000000000
      1867        94  IM1H      DN1           -17.1365466262        2.5317077190       25.6877315984  IM1H      94              0.0000000000
      1868        94  IM1H      C2            -16.2249166504        3.4880627025       25.3181174176  IM1H      94              0.0000000000
      1869        94  IM1H      DC2           -16.2450504707        3.4592167241       25.3369367973  IM1H      94              0.0000000000
      1870        94  IM1H      H4            -16.4800559062        4.4239622789       24.8365730861  IM1H      94              0.0000000000
      1871        94  IM1H      C3            -14.9971225879        2.9859451599       25.6448344928  IM1H      94              0.0000000000
      1872        94  IM1H      DC3           -15.0003114794        2.9815752485       25.6538622311  IM1H      94              0.0000000000
      1873        94  IM1H      H5            -14.0222746453        3.4314845747       25.4897373659  IM1H      94              0.0000000000
      1874        94  IM1H      C4            -16.5356529597        1.4694556197       26.2197954560  IM1H      94              0.0000000000
      1875        94  IM1H      DC4           -16.5643553412        1.4938403401       26.2186226963  IM1H      94              0.0000000000
      1876        94  IM1H      H6            -17.0093378791        0.5484679407       26.5596546801  IM1H      94              0.0000000000
      1877        94  IM1H      N2            -15.2177211687        1.7401559435       26.2037441853  IM1H      94              0.0000000000
      1878        94  IM1H      DN2           -15.2256316002        1.7461828610       26.2132013898  IM1H      94              0.0000000000
      1879        94  IM1H      H7            -14.4980157550        1.0599877526       26.3430113729  IM1H      94              0.0000000000
      1880        94  IM1H      LPN21         -15.0074244383        1.5532189704       26.3078107662  IM1H      94              0.0000000000
      1881        95  IM1H      C1             -6.1954109902        1.8097144448      -16.1398102311  IM1H      95              0.0000000000
      1882        95  IM1H      DC1            -6.1853638691        1.7963046994      -16.1368860431  IM1H      95              0.0000000000
      1883        95  IM1H      H1             -6.5362065274        1.5152011160      -17.1554092182  IM1H      95              0.0000000000
      1884        95  IM1H      H2             -5.0972422968        1.9779202637      -16.1325078910  IM1H      95              0.0000000000
      1885        95  IM1H      H3             -6.7317314601        2.7269449381      -15.8152034294  IM1H      95              0.0000000000
      1886        95  IM1H      N1             -6.5048895072        0.7152863621      -15.2123848531  IM1H      95              0.0000000000
      1887        95  IM1H      DN1            -6.5053971298        0.6926003807      -15.1943362079  IM1H      95              0.0000000000
      1888        95  IM1H      C2             -5.9983415473       -0.5565820821      -15.3236444835  IM1H      95              0.0000000000
      1889        95  IM1H      DC2            -6.0053351108       -0.5412676162      -15.3274277118  IM1H      95              0.0000000000
      1890        95  IM1H      H4             -5.2848620984       -0.8440904917      -16.0859928237  IM1H      95              0.0000000000
      1891        95  IM1H      C3             -6.6023515279       -1.3048293696      -14.3511526129  IM1H      95              0.0000000000
      1892        95  IM1H      DC3            -6.5888044031       -1.2983784359      -14.3462238726  IM1H      95              0.0000000000
      1893        95  IM1H      H5             -6.5171471884       -2.3657503395      -14.1509629122  IM1H      95              0.0000000000
      1894        95  IM1H      C4             -7.3950416778        0.7805307567      -14.2106094801  IM1H      95              0.0000000000
      1895        95  IM1H      DC4            -7.3763373869        0.7803254061      -14.2194520883  IM1H      95              0.0000000000
      1896        95  IM1H      H6             -7.9781950468        1.6644381262      -13.9522687931  IM1H      95              0.0000000000
      1897        95  IM1H      N2             -7.4611436529       -0.4567873761      -13.6762490853  IM1H      95              0.0000000000
      1898        95  IM1H      DN2            -7.4599558137       -0.4571280577      -13.6722986205  IM1H      95              0.0000000000
      1899        95  IM1H      H7             -8.0896979224       -0.7599059939      -12.9599819327  IM1H      95              0.0000000000
      1900        95  IM1H      LPN21          -7.6377358085       -0.5310560841      -13.4453825230  IM1H      95              0.0000000000
      1901        96  IM1H      C1             15.5574544757       13.2879217742        3.3360051568  IM1H      96              0.0000000000
      1902        96  IM1H      DC1            15.5676821414       13.2663724450        3.3228683785  IM1H      96              0.0000000000
      1903        96  IM1H      H1             14.8063125158       13.0291117975        4.1126158392  IM1H      96              0.0000000000
      1904        96  IM1H      H2             15.4571290191       12.6126922678        2.4594659857  IM1H      96              0.0000000000
      1905        96  IM1H      H3             15.3970453930       14.3389905297        3.0137561881  IM1H      96              0.0000000000
      1906        96  IM1H      N1             16.9086081105       13.1601867913        3.9100560717  IM1H      96              0.0000000000
      1907        96  IM1H      DN1            16.9167014416       13.1310912645        3.9038195696  IM1H      96              0.0000000000
      1908        96  IM1H      C2             17.4465685454       11.9977809354        4.4042036927  IM1H      96              0.0000000000
      1909        96  IM1H      DC2            17.4381741896       11.9796244588        4.3760255936  IM1H      96              0.0000000000
      1910        96  IM1H      H4             16.8617436012       11.0938224391        4.5213694795  IM1H      96              0.0000000000
      1911        96  IM1H      C3             18.6880121296       12.3134648697        4.8889880113  IM1H      96              0.0000000000
      1912        96  IM1H      DC3            18.6939337955       12.2580970360        4.8675417469  IM1H      96              0.0000000000
      1913        96  IM1H      H5             19.3925204466       11.7316135407        5.4703708991  IM1H      96              0.0000000000
      1914        96  IM1H      C4             17.7677452384       14.1746651735        4.0741357248  IM1H      96              0.0000000000
      1915        96  IM1H      DC4            17.7417405296       14.1287874249        4.0067592582  IM1H      96              0.0000000000
      1916        96  IM1H      H6             17.5486653738       15.2324654572        3.9286621096  IM1H      96              0.0000000000
      1917        96  IM1H      N2             18.8636536213       13.6659667199        4.6774678442  IM1H      96              0.0000000000
      1918        96  IM1H      DN2            18.8697805359       13.6328560625        4.6397963811  IM1H      96              0.0000000000
      1919        96  IM1H      H7             19.4244779092       14.2291314536        5.2843628934  IM1H      96              0.0000000000
      1920        96  IM1H      LPN21          19.1057463648       13.8266780554        4.7520531655  IM1H      96              0.0000000000
      1921        97  IM1H      C1             21.2264441782      -28.1789081780       16.3461310009  IM1H      97              0.0000000000
      1922        97  IM1H      DC1            21.2476318198      -28.1566523717       16.2998807630  IM1H      97              0.0000000000
      1923        97  IM1H      H1             21.8533498214      -27.8065813456       17.1843929206  IM1H      97              0.0000000000
      1924        97  IM1H      H2             21.0023513856      -29.2552815125       16.5058929059  IM1H      97              0.0000000000
      1925        97  IM1H      H3             20.2726130548      -27.6111724309       16.2991915787  IM1H      97              0.0000000000
      1926        97  IM1H      N1             21.9618117946      -28.0258290290       15.0859010087  IM1H      97              0.0000000000
      1927        97  IM1H      DN1            21.9810398312      -28.0184284347       15.0456011900  IM1H      97              0.0000000000
      1928        97  IM1H      C2             23.1749040479      -28.6128832584       14.8139911949  IM1H      97              0.0000000000
      1929        97  IM1H      DC2            23.1589703370      -28.5915206162       14.7910804673  IM1H      97              0.0000000000
      1930        97  IM1H      H4             23.6935419369      -29.2403133207       15.5282987316  IM1H      97              0.0000000000
      1931        97  IM1H      C3             23.5193240066      -28.2341532278       13.5466166763  IM1H      97              0.0000000000
      1932        97  IM1H      DC3            23.5201347828      -28.2353664825       13.5157658287  IM1H      97              0.0000000000
      1933        97  IM1H      H5             24.4278823081      -28.4692368647       13.0061108979  IM1H      97              0.0000000000
      1934        97  IM1H      C4             21.5439058715      -27.3058011951       14.0366812832  IM1H      97              0.0000000000
      1935        97  IM1H      DC4            21.5617954937      -27.3194962547       14.0402262697  IM1H      97              0.0000000000
      1936        97  IM1H      H6             20.6170647077      -26.7350424534       13.9792363893  IM1H      97              0.0000000000
      1937        97  IM1H      N2             22.4907241493      -27.4326535290       13.0867560904  IM1H      97              0.0000000000
      1938        97  IM1H      DN2            22.4994685004      -27.4346310378       13.0636444487  IM1H      97              0.0000000000
      1939        97  IM1H      H7             22.4770726723      -26.9349884154       12.2194942661  IM1H      97              0.0000000000
      1940        97  IM1H      LPN21          22.4750013330      -27.3033099104       12.8165283691  IM1H      97              0.0000000000
      1941        98  IM1H      C1            -23.0680861520       22.7729971357       27.3832810064  IM1H      98              0.0000000000
      1942        98  IM1H      DC1           -23.0699620439       22.8314499044       27.3889596346  IM1H      98              0.0000000000
      1943        98  IM1H      H1            -22.3079147428       21.9807484918       27.5529940480  IM1H      98              0.0000000000
      1944        98  IM1H      H2            -23.6287358751       22.5295417985       26.4555297532  IM1H      98              0.0000000000
      1945        98  IM1H      H3            -23.7629923540       22.7996707791       28.2497190522  IM1H      98              0.0000000000
      1946        98  IM1H      N1            -22.3867045400       24.0743813906       27.2181248281  IM1H      98              0.0000000000
      1947        98  IM1H      DN1           -22.3893268748       24.1211297555       27.2353452099  IM1H      98              0.0000000000
      1948        98  IM1H      C2            -21.5179130733       24.3762535510       26.1972455214  IM1H      98              0.0000000000
      1949        98  IM1H      DC2           -21.5591879567       24.3915269085       26.2484170602  IM1H      98              0.0000000000
      1950        98  IM1H      H4            -21.2295593905       23.6861112646       25.4140183653  IM1H      98              0.0000000000
      1951        98  IM1H      C3            -21.0717298447       25.6531027648       26.4257647359  IM1H      98              0.0000000000
      1952        98  IM1H      DC3           -21.1380476054       25.6643845601       26.4436197410  IM1H      98              0.0000000000
      1953        98  IM1H      H5            -20.3067034051       26.2006597151       25.8892901951  IM1H      98              0.0000000000
      1954        98  IM1H      C4            -22.4938299368       25.1190481073       28.0593056813  IM1H      98              0.0000000000
      1955        98  IM1H      DC4           -22.5282907185       25.1205648558       28.0776722702  IM1H      98              0.0000000000
      1956        98  IM1H      H6            -23.1003592583       25.1178009248       28.9649660076  IM1H      98              0.0000000000
      1957        98  IM1H      N2            -21.6781924477       26.0878747479       27.5855458568  IM1H      98              0.0000000000
      1958        98  IM1H      DN2           -21.7221828832       26.0960153808       27.5956101267  IM1H      98              0.0000000000
      1959        98  IM1H      H7            -21.3092640041       26.8782000309       28.0747061070  IM1H      98              0.0000000000
      1960        98  IM1H      LPN21         -21.6384139828       26.3550064763       27.7161533352  IM1H      98              0.0000000000
      1961        99  IM1H      C1            -16.2299280200      -23.3920410425      -25.7356497593  IM1H      99              0.0000000000
      1962        99  IM1H      DC1           -16.2600243336      -23.4086358984      -25.7219141007  IM1H      99              0.0000000000
      1963        99  IM1H      H1            -15.2936495467      -23.9121247370      -25.4403252390  IM1H      99              0.0000000000
      1964        99  IM1H      H2            -16.2111423704      -22.3483972346      -25.3551557353  IM1H      99              0.0000000000
      1965        99  IM1H      H3            -16.3259558756      -23.3887082990      -26.8424869396  IM1H      99              0.0000000000
      1966        99  IM1H      N1            -17.3747300616      -24.0890271035      -25.1386028228  IM1H      99              0.0000000000
      1967        99  IM1H      DN1           -17.4019696424      -24.1078678313      -25.1269567636  IM1H      99              0.0000000000
      1968        99  IM1H      C2            -17.5296330065      -24.3017026674      -23.7941342759  IM1H      99              0.0000000000
      1969        99  IM1H      DC2           -17.5564331020      -24.3050891313      -23.8218387114  IM1H      99              0.0000000000
      1970        99  IM1H      H4            -16.7949141689      -23.9827443423      -23.0652016203  IM1H      99              0.0000000000
      1971        99  IM1H      C3            -18.7028670388      -24.9874036494      -23.6365252109  IM1H      99              0.0000000000
      1972        99  IM1H      DC3           -18.7243212683      -24.9964083229      -23.6289967478  IM1H      99              0.0000000000
      1973        99  IM1H      H5            -19.1401099309      -25.3687875363      -22.7220559745  IM1H      99              0.0000000000
      1974        99  IM1H      C4            -18.4090865963      -24.6061747867      -25.8143270507  IM1H      99              0.0000000000
      1975        99  IM1H      DC4           -18.3967886460      -24.6011108372      -25.7883802194  IM1H      99              0.0000000000
      1976        99  IM1H      H6            -18.5141969993      -24.6288467317      -26.8990103160  IM1H      99              0.0000000000
      1977        99  IM1H      N2            -19.2300724825      -25.1595798639      -24.8992853869  IM1H      99              0.0000000000
      1978        99  IM1H      DN2           -19.2375593592      -25.1704192321      -24.8893263058  IM1H      99              0.0000000000
      1979        99  IM1H      H7            -20.0681301311      -25.6602979298      -25.1159436340  IM1H      99              0.0000000000
      1980        99  IM1H      LPN21         -19.4876756467      -25.2982137170      -24.9657779769  IM1H      99              0.0000000000
      1981       100  IM1H      C1            -19.6298112829       23.5041895669      -27.1153998219  IM1H      100             0.0000000000
      1982       100  IM1H      DC1           -19.6459798616       23.5218605390      -27.1016934450  IM1H      100             0.0000000000
      1983       100  IM1H      H1            -19.6487090395       24.5774799645      -27.4017764919  IM1H      100             0.0000000000
      1984       100  IM1H      H2            -20.6524605412       23.0701271571      -27.1054338653  IM1H      100             0.0000000000
      1985       100  IM1H      H3            -19.0012552086       22.9386974500      -27.8361334258  IM1H      100             0.0000000000
      1986       100  IM1H      N1            -19.0531351472       23.3791580715      -25.7672053930  IM1H      100             0.0000000000
      1987       100  IM1H      DN1           -19.0579357096       23.3869634345      -25.7534036600  IM1H      100             0.0000000000
      1988       100  IM1H      C2            -19.6142638168       23.9008646337      -24.6255404301  IM1H      100             0.0000000000
      1989       100  IM1H      DC2           -19.6246224503       23.9038263452      -24.6543593491  IM1H      100             0.0000000000
      1990       100  IM1H      H4            -20.5323003007       24.4751797140      -24.6094096293  IM1H      100             0.0000000000
      1991       100  IM1H      C3            -18.8193712031       23.5082001854      -23.5842003105  IM1H      100             0.0000000000
      1992       100  IM1H      DC3           -18.8271627525       23.5312938900      -23.6070098463  IM1H      100             0.0000000000
      1993       100  IM1H      H5            -18.9516832439       23.6541497419      -22.5192678005  IM1H      100             0.0000000000
      1994       100  IM1H      C4            -17.9392206592       22.6934198909      -25.4684806263  IM1H      100             0.0000000000
      1995       100  IM1H      DC4           -17.9770264920       22.7209677910      -25.4867690818  IM1H      100             0.0000000000
      1996       100  IM1H      H6            -17.3231162665       22.1310199184      -26.1700657232  IM1H      100             0.0000000000
      1997       100  IM1H      N2            -17.7965350955       22.7554135009      -24.1285384507  IM1H      100             0.0000000000
      1998       100  IM1H      DN2           -17.8025501730       22.7686542411      -24.1397628320  IM1H      100             0.0000000000
      1999       100  IM1H      H7            -17.1438135302       22.2284015654      -23.5842839348  IM1H      100             0.0000000000
      2000       100  IM1H      LPN21         -17.5739722485       22.6234958363      -23.9766717035  IM1H      100             0.0000000000
      2001       101  IM1H      C1            -19.9881117127      -13.2227071824       -5.4077044891  IM1H      101             0.0000000000
      2002       101  IM1H      DC1           -20.0075993883      -13.2273512369       -5.4215159907  IM1H      101             0.0000000000
      2003       101  IM1H      H1            -19.0921845298      -13.5552462917       -5.9743200777  IM1H      101             0.0000000000
      2004       101  IM1H      H2            -19.8953994088      -13.5409535105       -4.3473061190  IM1H      101             0.0000000000
      2005       101  IM1H      H3            -20.0882548619      -12.1172666038       -5.4555947513  IM1H      101             0.0000000000
      2006       101  IM1H      N1            -21.1794035407      -13.8592213561       -5.9905079514  IM1H      101             0.0000000000
      2007       101  IM1H      DN1           -21.1996335657      -13.8578500229       -6.0020368859  IM1H      101             0.0000000000
      2008       101  IM1H      C2            -21.3595801920      -15.2205583950       -6.0449719160  IM1H      101             0.0000000000
      2009       101  IM1H      DC2           -21.3620992423      -15.1765023957       -6.0569876707  IM1H      101             0.0000000000
      2010       101  IM1H      H4            -20.6428558637      -15.9394269455       -5.6675818732  IM1H      101             0.0000000000
      2011       101  IM1H      C3            -22.6366726043      -15.4303213118       -6.4857478280  IM1H      101             0.0000000000
      2012       101  IM1H      DC3           -22.6420030925      -15.4160269191       -6.5068570864  IM1H      101             0.0000000000
      2013       101  IM1H      H5            -23.1755951643      -16.3689322804       -6.5239698640  IM1H      101             0.0000000000
      2014       101  IM1H      C4            -22.2947767745      -13.2227009944       -6.3883601025  IM1H      101             0.0000000000
      2015       101  IM1H      DC4           -22.2726310657      -13.2240413394       -6.3902609941  IM1H      101             0.0000000000
      2016       101  IM1H      H6            -22.4560249574      -12.1448782389       -6.3684319492  IM1H      101             0.0000000000
      2017       101  IM1H      N2            -23.1924230045      -14.1820510760       -6.6983544706  IM1H      101             0.0000000000
      2018       101  IM1H      DN2           -23.1997258441      -14.1727549330       -6.7073069750  IM1H      101             0.0000000000
      2019       101  IM1H      H7            -24.1673382825      -14.0363025854       -6.8665733105  IM1H      101             0.0000000000
      2020       101  IM1H      LPN21         -23.4699050677      -14.1268372216       -6.7981298928  IM1H      101             0.0000000000
      2021       102  IM1H      C1             26.6563819504       -5.4181073244        3.4334589044  IM1H      102             0.0000000000
      2022       102  IM1H      DC1            26.6293597582       -5.4213956696        3.4638618728  IM1H      102             0.0000000000
      2023       102  IM1H      H1             27.3754239554       -5.1366387569        4.2322548993  IM1H      102             0.0000000000
      2024       102  IM1H      H2             27.1884931109       -5.3236890226        2.4627561193  IM1H      102             0.0000000000
      2025       102  IM1H      H3             26.3177045418       -6.4683768319        3.5621157122  IM1H      102             0.0000000000
      2026       102  IM1H      N1             25.5057853499       -4.4862376206        3.4885943507  IM1H      102             0.0000000000
      2027       102  IM1H      DN1            25.4785524823       -4.4864129241        3.5063591195  IM1H      102             0.0000000000
      2028       102  IM1H      C2             25.6210839450       -3.1198745814        3.4312316573  IM1H      102             0.0000000000
      2029       102  IM1H      DC2            25.5816946523       -3.1520361358        3.4837485400  IM1H      102             0.0000000000
      2030       102  IM1H      H4             26.5273861449       -2.6348459633        3.0902733577  IM1H      102             0.0000000000
      2031       102  IM1H      C3             24.4161841544       -2.6034561289        3.8199296684  IM1H      102             0.0000000000
      2032       102  IM1H      DC3            24.4015449094       -2.5852977051        3.8014682070  IM1H      102             0.0000000000
      2033       102  IM1H      H5             24.1274860750       -1.5669695577        3.9433719902  IM1H      102             0.0000000000
      2034       102  IM1H      C4             24.2631134064       -4.8297565206        3.8691804624  IM1H      102             0.0000000000
      2035       102  IM1H      DC4            24.2880380608       -4.8674448460        3.8534680368  IM1H      102             0.0000000000
      2036       102  IM1H      H6             23.9078150084       -5.8426666940        4.0585901483  IM1H      102             0.0000000000
      2037       102  IM1H      N2             23.5961121015       -3.6803517553        4.1121767385  IM1H      102             0.0000000000
      2038       102  IM1H      DN2            23.6249343199       -3.6956001483        4.0539243962  IM1H      102             0.0000000000
      2039       102  IM1H      H7             22.9146496849       -3.6089513182        4.8405385664  IM1H      102             0.0000000000
      2040       102  IM1H      LPN21          23.3141339418       -3.6666550230        4.2136691865  IM1H      102             0.0000000000
      2041       103  IM1H      C1            -26.7038448705      -11.4191929395       18.3584075332  IM1H      103             0.0000000000
      2042       103  IM1H      DC1           -26.7166259327      -11.4191171647       18.3596848240  IM1H      103             0.0000000000
      2043       103  IM1H      H1            -27.6164920521      -10.8305443387       18.5926914381  IM1H      103             0.0000000000
      2044       103  IM1H      H2            -25.9837800479      -11.3718732221       19.2031492070  IM1H      103             0.0000000000
      2045       103  IM1H      H3            -26.9642640552      -12.4796034069       18.1533892673  IM1H      103             0.0000000000
      2046       103  IM1H      N1            -26.0649629566      -10.8387662167       17.1730114266  IM1H      103             0.0000000000
      2047       103  IM1H      DN1           -26.0685378032      -10.8444620412       17.1679033097  IM1H      103             0.0000000000
      2048       103  IM1H      C2            -25.5674492908       -9.5618908196       17.1092062674  IM1H      103             0.0000000000
      2049       103  IM1H      DC2           -25.5980727119       -9.6041489453       17.1259273177  IM1H      103             0.0000000000
      2050       103  IM1H      H4            -25.5695816797       -8.8477927546       17.9234227045  IM1H      103             0.0000000000
      2051       103  IM1H      C3            -24.9864573216       -9.4360511206       15.8859586528  IM1H      103             0.0000000000
      2052       103  IM1H      DC3           -25.0445122103       -9.4384164706       15.8938062697  IM1H      103             0.0000000000
      2053       103  IM1H      H5            -24.3301601521       -8.6655702198       15.5005728634  IM1H      103             0.0000000000
      2054       103  IM1H      C4            -25.8165541406      -11.5001677882       16.0316754308  IM1H      103             0.0000000000
      2055       103  IM1H      DC4           -25.8469920395      -11.5211161421       16.0697290688  IM1H      103             0.0000000000
      2056       103  IM1H      H6            -26.0305115295      -12.5506821715       15.8348461491  IM1H      103             0.0000000000
      2057       103  IM1H      N2            -25.1455185349      -10.6445286576       15.2411798849  IM1H      103             0.0000000000
      2058       103  IM1H      DN2           -25.1915836636      -10.6674651670       15.2571132942  IM1H      103             0.0000000000
      2059       103  IM1H      H7            -24.4890494710      -10.8411214054       14.5128944601  IM1H      103             0.0000000000
      2060       103  IM1H      LPN21         -25.0473443052      -10.7122495161       14.9659060105  IM1H      103             0.0000000000
      2061       104  IM1H      C1            -23.2713397746       26.7195081964      -28.6859564446  IM1H      104             0.0000000000
      2062       104  IM1H      DC1           -23.2764927892       26.7095455153      -28.6850209895  IM1H      104             0.0000000000
      2063       104  IM1H      H1            -22.6387941947       25.8267765062      -28.8789259172  IM1H      104             0.0000000000
      2064       104  IM1H      H2            -22.6282718673       27.6123135278      -28.5320626281  IM1H      104             0.0000000000
      2065       104  IM1H      H3            -23.9626078258       26.8964824777      -29.5375135976  IM1H      104             0.0000000000
      2066       104  IM1H      N1            -24.0530664050       26.4842004425      -27.4618668829  IM1H      104             0.0000000000
      2067       104  IM1H      DN1           -24.0577310742       26.4817394977      -27.4514729277  IM1H      104             0.0000000000
      2068       104  IM1H      C2            -23.4968293934       26.2403270999      -26.2295291906  IM1H      104             0.0000000000
      2069       104  IM1H      DC2           -23.5042986017       26.2445870847      -26.2585077385  IM1H      104             0.0000000000
      2070       104  IM1H      H4            -22.4288569604       26.2115490870      -26.0520588878  IM1H      104             0.0000000000
      2071       104  IM1H      C3            -24.5360322489       26.0663487608      -25.3566398396  IM1H      104             0.0000000000
      2072       104  IM1H      DC3           -24.5281644149       26.0710502437      -25.3687233846  IM1H      104             0.0000000000
      2073       104  IM1H      H5            -24.5138732325       25.8522626883      -24.2952421134  IM1H      104             0.0000000000
      2074       104  IM1H      C4            -25.3939570071       26.4682319461      -27.3815743657  IM1H      104             0.0000000000
      2075       104  IM1H      DC4           -25.3568310090       26.4712466544      -27.3976379443  IM1H      104             0.0000000000
      2076       104  IM1H      H6            -26.0926173115       26.6321487685      -28.2020041643  IM1H      104             0.0000000000
      2077       104  IM1H      N2            -25.6981471047       26.2124085444      -26.0916920679  IM1H      104             0.0000000000
      2078       104  IM1H      DN2           -25.6886234544       26.2159217796      -26.1015490773  IM1H      104             0.0000000000
      2079       104  IM1H      H7            -26.6171048476       26.1293005313      -25.7061927488  IM1H      104             0.0000000000
      2080       104  IM1H      LPN21         -25.9780658949       26.1914655110      -25.9858296086  IM1H      104             0.0000000000
      2081       105  IM1H      C1             27.5934980801       -8.5445616787        6.3804747652  IM1H      105             0.0000000000
      2082       105  IM1H      DC1            27.5817917682       -8.5480953422        6.4093000252  IM1H      105             0.0000000000
      2083       105  IM1H      H1             27.8795222651       -7.4748343964        6.2899501354  IM1H      105             0.0000000000
      2084       105  IM1H      H2             26.6033811537       -8.7101053954        5.9044655733  IM1H      105             0.0000000000
      2085       105  IM1H      H3             28.3565874301       -9.1682790224        5.8676469978  IM1H      105             0.0000000000
      2086       105  IM1H      N1             27.5155232094       -8.9067712677        7.8097562044  IM1H      105             0.0000000000
      2087       105  IM1H      DN1            27.5079741147       -8.9100702572        7.8282861476  IM1H      105             0.0000000000
      2088       105  IM1H      C2             26.6402589054       -8.3339132322        8.7032027010  IM1H      105             0.0000000000
      2089       105  IM1H      DC2            26.6395201863       -8.3504027384        8.6796628755  IM1H      105             0.0000000000
      2090       105  IM1H      H4             25.9869226897       -7.5105328244        8.4422707302  IM1H      105             0.0000000000
      2091       105  IM1H      C3             26.8376607549       -8.9623143558        9.9067892178  IM1H      105             0.0000000000
      2092       105  IM1H      DC3            26.8175187768       -8.9632501937        9.8883993938  IM1H      105             0.0000000000
      2093       105  IM1H      H5             26.3920068259       -8.7528190933       10.8713581944  IM1H      105             0.0000000000
      2094       105  IM1H      C4             28.2431791509       -9.8613597896        8.4188266108  IM1H      105             0.0000000000
      2095       105  IM1H      DC4            28.2275702428       -9.8350718386        8.3816366130  IM1H      105             0.0000000000
      2096       105  IM1H      H6             29.0091162021      -10.4883673477        7.9624255201  IM1H      105             0.0000000000
      2097       105  IM1H      N2             27.8312114273       -9.9088057558        9.7055515076  IM1H      105             0.0000000000
      2098       105  IM1H      DN2            27.8211238512       -9.8887492533        9.6835780541  IM1H      105             0.0000000000
      2099       105  IM1H      H7             28.1302961811      -10.5802731634       10.3835484328  IM1H      105             0.0000000000
      2100       105  IM1H      LPN21          27.9414937383      -10.0972453226        9.9112900348  IM1H      105             0.0000000000
      2101       106  IM1H      C1             16.8232769597        1.0994348043        1.2898877193  IM1H      106             0.0000000000
      2102       106  IM1H      DC1            16.8181867707        1.0888763246        1.2642054179  IM1H      106             0.0000000000
      2103       106  IM1H      H1             17.2713391629        2.0526410928        1.6433831728  IM1H      106             0.0000000000
      2104       106  IM1H      H2             17.3383004427        0.2418126938        1.7731641698  IM1H      106             0.0000000000
      2105       106  IM1H      H3             15.7401739227        1.0869634630        1.5369773300  IM1H      106             0.0000000000
      2106       106  IM1H      N1             17.0054055515        1.0132428445       -0.1675691312  IM1H      106             0.0000000000
      2107       106  IM1H      DN1            16.9969863462        1.0089583367       -0.1951953481  IM1H      106             0.0000000000
      2108       106  IM1H      C2             18.2214315494        1.0820448040       -0.8057930155  IM1H      106             0.0000000000
      2109       106  IM1H      DC2            18.1742397803        1.0663210693       -0.8079954228  IM1H      106             0.0000000000
      2110       106  IM1H      H4             19.1636053475        1.2205925158       -0.2900391345  IM1H      106             0.0000000000
      2111       106  IM1H      C3             17.9598421890        1.0680006733       -2.1492532784  IM1H      106             0.0000000000
      2112       106  IM1H      DC3            17.9428793625        1.0275630783       -2.1583998326  IM1H      106             0.0000000000
      2113       106  IM1H      H5             18.6596370182        1.2066350178       -2.9640886701  IM1H      106             0.0000000000
      2114       106  IM1H      C4             16.0081086596        0.9514082439       -1.0645847947  IM1H      106             0.0000000000
      2115       106  IM1H      DC4            16.0135270024        0.9364160854       -1.0501186251  IM1H      106             0.0000000000
      2116       106  IM1H      H6             14.9451487944        0.9671507106       -0.8238183107  IM1H      106             0.0000000000
      2117       106  IM1H      N2             16.5840434476        0.9977710028       -2.2854511167  IM1H      106             0.0000000000
      2118       106  IM1H      DN2            16.5751638154        0.9710648987       -2.2930317049  IM1H      106             0.0000000000
      2119       106  IM1H      H7             16.1127656082        1.2936307209       -3.1163327119  IM1H      106             0.0000000000
      2120       106  IM1H      LPN21          16.4316848290        0.9932234414       -2.5438426239  IM1H      106             0.0000000000
      2121       107  IM1H      C1            -14.5713426884        0.5380585206        3.7843134403  IM1H      107             0.0000000000
      2122       107  IM1H      DC1           -14.5898399325        0.5163024973        3.7874962019  IM1H      107             0.0000000000
      2123       107  IM1H      H1            -14.9434814106        0.5894759316        2.7387561624  IM1H      107             0.0000000000
      2124       107  IM1H      H2            -13.7921480968       -0.2445390526        3.9056304996  IM1H      107             0.0000000000
      2125       107  IM1H      H3            -14.1662640110        1.5419493391        4.0341843878  IM1H      107             0.0000000000
      2126       107  IM1H      N1            -15.6810726078        0.2469718930        4.6878951727  IM1H      107             0.0000000000
      2127       107  IM1H      DN1           -15.7000303372        0.2237497577        4.6900466201  IM1H      107             0.0000000000
      2128       107  IM1H      C2            -16.3073979815       -0.9702169893        4.8278988443  IM1H      107             0.0000000000
      2129       107  IM1H      DC2           -16.3058090780       -0.9707386898        4.8037732605  IM1H      107             0.0000000000
      2130       107  IM1H      H4            -15.9943972810       -1.8599521993        4.2956481350  IM1H      107             0.0000000000
      2131       107  IM1H      C3            -17.3003624872       -0.7885221153        5.7494163840  IM1H      107             0.0000000000
      2132       107  IM1H      DC3           -17.3055933360       -0.8107304822        5.7274980417  IM1H      107             0.0000000000
      2133       107  IM1H      H5            -18.0223967990       -1.4885394210        6.1513258570  IM1H      107             0.0000000000
      2134       107  IM1H      C4            -16.2457118676        1.1642042771        5.4785074176  IM1H      107             0.0000000000
      2135       107  IM1H      DC4           -16.2199354881        1.1215517223        5.4479924656  IM1H      107             0.0000000000
      2136       107  IM1H      H6            -15.9745983052        2.2179393999        5.5436206047  IM1H      107             0.0000000000
      2137       107  IM1H      N2            -17.2301910286        0.5346511310        6.1419141605  IM1H      107             0.0000000000
      2138       107  IM1H      DN2           -17.2230557336        0.5142321302        6.1279955718  IM1H      107             0.0000000000
      2139       107  IM1H      H7            -17.8590579576        0.9847492350        6.7759000298  IM1H      107             0.0000000000
      2140       107  IM1H      LPN21         -17.4060515622        0.6681284847        6.3450320297  IM1H      107             0.0000000000
      2141       108  IM1H      C1             17.7197475679       29.2472431177        8.3133978865  IM1H      108             0.0000000000
      2142       108  IM1H      DC1            17.7489956429       29.2594205687        8.3252671711  IM1H      108             0.0000000000
      2143       108  IM1H      H1             17.2357904214       30.0971762556        7.7864062912  IM1H      108             0.0000000000
      2144       108  IM1H      H2             17.3215239908       28.2905596072        7.9127788089  IM1H      108             0.0000000000
      2145       108  IM1H      H3             18.8229535817       29.2525475080        8.1821372477  IM1H      108             0.0000000000
      2146       108  IM1H      N1             17.3936732892       29.3166947145        9.7492878457  IM1H      108             0.0000000000
      2147       108  IM1H      DN1            17.4101925167       29.3184729613        9.7590816801  IM1H      108             0.0000000000
      2148       108  IM1H      C2             16.1275346135       29.0691178352       10.2462991866  IM1H      108             0.0000000000
      2149       108  IM1H      DC2            16.2030742947       29.0670775141       10.2324213146  IM1H      108             0.0000000000
      2150       108  IM1H      H4             15.2403839455       28.9494605809        9.6367626137  IM1H      108             0.0000000000
      2151       108  IM1H      C3             16.2527729624       29.0121341463       11.6082264376  IM1H      108             0.0000000000
      2152       108  IM1H      DC3            16.2848900281       29.0222536409       11.5993251878  IM1H      108             0.0000000000
      2153       108  IM1H      H5             15.4894592296       28.8185953809       12.3517208167  IM1H      108             0.0000000000
      2154       108  IM1H      C4             18.2684177706       29.4430163603       10.7486721081  IM1H      108             0.0000000000
      2155       108  IM1H      DC4            18.3015730319       29.4552331042       10.7232494495  IM1H      108             0.0000000000
      2156       108  IM1H      H6             19.3432328595       29.5982961950       10.6550735094  IM1H      108             0.0000000000
      2157       108  IM1H      N2             17.5774307529       29.2494454397       11.9041634547  IM1H      108             0.0000000000
      2158       108  IM1H      DN2            17.6116198451       29.2643375324       11.8846244063  IM1H      108             0.0000000000
      2159       108  IM1H      H7             17.9335853162       29.1838636281       12.8362862754  IM1H      108             0.0000000000
      2160       108  IM1H      LPN21          17.6974662635       29.2577379590       12.1789774105  IM1H      108             0.0000000000
      2161       109  IM1H      C1             20.4536267409       22.9176978538       -5.8885334435  IM1H      109             0.0000000000
      2162       109  IM1H      DC1            20.4614900100       22.9287632181       -5.8781192213  IM1H      109             0.0000000000
      2163       109  IM1H      H1             20.8441686538       22.3383027991       -5.0247629952  IM1H      109             0.0000000000
      2164       109  IM1H      H2             20.9588961492       23.9046823008       -5.9584299888  IM1H      109             0.0000000000
      2165       109  IM1H      H3             20.5966776183       22.3480711412       -6.8316044136  IM1H      109             0.0000000000
      2166       109  IM1H      N1             19.0227373340       23.1444154887       -5.6896329411  IM1H      109             0.0000000000
      2167       109  IM1H      DN1            19.0251537853       23.1548562660       -5.6747848605  IM1H      109             0.0000000000
      2168       109  IM1H      C2             18.4655143885       23.8512577432       -4.6495241416  IM1H      109             0.0000000000
      2169       109  IM1H      DC2            18.4814465113       23.8517616774       -4.6697119157  IM1H      109             0.0000000000
      2170       109  IM1H      H4             19.0263604368       24.2352094763       -3.8063623679  IM1H      109             0.0000000000
      2171       109  IM1H      C3             17.1206758398       23.8702838086       -4.8709923761  IM1H      109             0.0000000000
      2172       109  IM1H      DC3            17.1171838936       23.9141387639       -4.8532948651  IM1H      109             0.0000000000
      2173       109  IM1H      H5             16.3134502308       24.2779845268       -4.2751266694  IM1H      109             0.0000000000
      2174       109  IM1H      C4             18.0772477810       22.7256660710       -6.5306630209  IM1H      109             0.0000000000
      2175       109  IM1H      DC4            18.1344947077       22.7676383094       -6.5182953998  IM1H      109             0.0000000000
      2176       109  IM1H      H6             18.2130490181       22.0444379284       -7.3706548314  IM1H      109             0.0000000000
      2177       109  IM1H      N2             16.9088010567       23.1555816548       -6.0271925032  IM1H      109             0.0000000000
      2178       109  IM1H      DN2            16.9400138409       23.2198358963       -6.0311515953  IM1H      109             0.0000000000
      2179       109  IM1H      H7             16.1427278267       22.5143253013       -6.0710342105  IM1H      109             0.0000000000
      2180       109  IM1H      LPN21          16.6422170389       23.1005488129       -6.1533049441  IM1H      109             0.0000000000
      2181       110  IM1H      C1             -3.9857988007        9.1667016165       12.2868367614  IM1H      110             0.0000000000
      2182       110  IM1H      DC1            -3.9522765022        9.1677829660       12.3098780335  IM1H      110             0.0000000000
      2183       110  IM1H      H1             -3.2009167546        9.9529558973       12.2775965397  IM1H      110             0.0000000000
      2184       110  IM1H      H2             -4.5162265684        9.1850477134       11.3108086857  IM1H      110             0.0000000000
      2185       110  IM1H      H3             -3.5748618509        8.1497019081       12.4633683911  IM1H      110             0.0000000000
      2186       110  IM1H      N1             -4.9535915278        9.4949537429       13.3392937124  IM1H      110             0.0000000000
      2187       110  IM1H      DN1            -4.9509671133        9.4952530650       13.3574687681  IM1H      110             0.0000000000
      2188       110  IM1H      C2             -5.7859005273       10.5811253103       13.2647037128  IM1H      110             0.0000000000
      2189       110  IM1H      DC2            -5.7542725480       10.5538344484       13.2923174215  IM1H      110             0.0000000000
      2190       110  IM1H      H4             -5.7652864092       11.2808821629       12.4383839167  IM1H      110             0.0000000000
      2191       110  IM1H      C3             -6.6646115679       10.4712887502       14.3062991371  IM1H      110             0.0000000000
      2192       110  IM1H      DC3            -6.6500184883       10.4676483075       14.3173037148  IM1H      110             0.0000000000
      2193       110  IM1H      H5             -7.5182407730       11.0945295507       14.5424708646  IM1H      110             0.0000000000
      2194       110  IM1H      C4             -5.2799246804        8.7200999402       14.3903397924  IM1H      110             0.0000000000
      2195       110  IM1H      DC4            -5.2471345161        8.7426165005       14.3830991766  IM1H      110             0.0000000000
      2196       110  IM1H      H6             -4.9454922528        7.6943953811       14.5458554151  IM1H      110             0.0000000000
      2197       110  IM1H      N2             -6.3365983875        9.3112722044       14.9843515171  IM1H      110             0.0000000000
      2198       110  IM1H      DN2            -6.3249680751        9.3078470780       14.9906867382  IM1H      110             0.0000000000
      2199       110  IM1H      H7             -6.9774005914        8.8491374129       15.5973800400  IM1H      110             0.0000000000
      2200       110  IM1H      LPN21          -6.4755806393        9.2027063625       15.2270393653  IM1H      110             0.0000000000
      2201       111  IM1H      C1             -7.0426185027       -1.0634410134       13.2287399389  IM1H      111             0.0000000000
      2202       111  IM1H      DC1            -7.0081913455       -1.1016787074       13.2007096729  IM1H      111             0.0000000000
      2203       111  IM1H      H1             -6.3081030794       -1.7150383040       12.7089043247  IM1H      111             0.0000000000
      2204       111  IM1H      H2             -7.0376441483       -1.2357673653       14.3262825967  IM1H      111             0.0000000000
      2205       111  IM1H      H3             -6.8303773025        0.0107911107       13.0408569527  IM1H      111             0.0000000000
      2206       111  IM1H      N1             -8.3922694542       -1.3631531450       12.7300225653  IM1H      111             0.0000000000
      2207       111  IM1H      DN1            -8.3874580531       -1.3986105504       12.6996599715  IM1H      111             0.0000000000
      2208       111  IM1H      C2             -9.0268495659       -2.5787299513       12.8100047449  IM1H      111             0.0000000000
      2209       111  IM1H      DC2            -9.0184149801       -2.5877351447       12.7923863326  IM1H      111             0.0000000000
      2210       111  IM1H      H4             -8.5941960422       -3.4423801189       13.2997070181  IM1H      111             0.0000000000
      2211       111  IM1H      C3            -10.2806572801       -2.3991150066       12.2930597668  IM1H      111             0.0000000000
      2212       111  IM1H      DC3           -10.2959559210       -2.4326744411       12.2822456740  IM1H      111             0.0000000000
      2213       111  IM1H      H5            -11.1085671061       -3.0963501181       12.2567621191  IM1H      111             0.0000000000
      2214       111  IM1H      C4             -9.2141364114       -0.4445818518       12.2131092863  IM1H      111             0.0000000000
      2215       111  IM1H      DC4            -9.1892722154       -0.4979658612       12.1820674723  IM1H      111             0.0000000000
      2216       111  IM1H      H6             -9.0142129664        0.6248053798       12.1457181522  IM1H      111             0.0000000000
      2217       111  IM1H      N2            -10.3664675988       -1.0714971583       11.9227415664  IM1H      111             0.0000000000
      2218       111  IM1H      DN2           -10.3846163515       -1.0969351094       11.9196804202  IM1H      111             0.0000000000
      2219       111  IM1H      H7            -11.1648023159       -0.6049203385       11.5419952590  IM1H      111             0.0000000000
      2220       111  IM1H      LPN21         -10.6032410667       -0.9374395924       11.7963813910  IM1H      111             0.0000000000
      2221       112  IM1H      C1             13.1081610222       -7.0190015468      -29.1218034255  IM1H      112             0.0000000000
      2222       112  IM1H      DC1            13.0988286740       -7.0265410575      -29.1005375453  IM1H      112             0.0000000000
      2223       112  IM1H      H1             12.5425299139       -6.5110455526      -28.3116409988  IM1H      112             0.0000000000
      2224       112  IM1H      H2             12.9456803891       -6.5100178759      -30.0958961658  IM1H      112             0.0000000000
      2225       112  IM1H      H3             14.1916000738       -7.0279929612      -28.8760393596  IM1H      112             0.0000000000
      2226       112  IM1H      N1             12.6261130995       -8.3999096141      -29.2430972097  IM1H      112             0.0000000000
      2227       112  IM1H      DN1            12.6168540470       -8.4254974780      -29.2325279595  IM1H      112             0.0000000000
      2228       112  IM1H      C2             11.3305353708       -8.7458332146      -29.5398014698  IM1H      112             0.0000000000
      2229       112  IM1H      DC2            11.3481729149       -8.7491269670      -29.5071084199  IM1H      112             0.0000000000
      2230       112  IM1H      H4             10.5621112216       -8.0202151617      -29.7762158691  IM1H      112             0.0000000000
      2231       112  IM1H      C3             11.2886848286      -10.1117870912      -29.5753430458  IM1H      112             0.0000000000
      2232       112  IM1H      DC3            11.2871671489      -10.1146890220      -29.5590908482  IM1H      112             0.0000000000
      2233       112  IM1H      H5             10.4576196549      -10.7630754495      -29.8162645098  IM1H      112             0.0000000000
      2234       112  IM1H      C4             13.3826973781       -9.4974444086      -29.0959767373  IM1H      112             0.0000000000
      2235       112  IM1H      DC4            13.3740165902       -9.4802831636      -29.0845175524  IM1H      112             0.0000000000
      2236       112  IM1H      H6             14.4509848141       -9.5038687226      -28.8795958646  IM1H      112             0.0000000000
      2237       112  IM1H      N2             12.5700034019      -10.5529065018      -29.3063083930  IM1H      112             0.0000000000
      2238       112  IM1H      DN2            12.5698638119      -10.5535339191      -29.2960736472  IM1H      112             0.0000000000
      2239       112  IM1H      H7             12.8438682979      -11.5144887034      -29.3252210822  IM1H      112             0.0000000000
      2240       112  IM1H      LPN21          12.6596361553      -10.8389830435      -29.2950753261  IM1H      112             0.0000000000
      2241       113  IM1H      C1             17.9750845781        2.9052558936      -13.2761376602  IM1H      113             0.0000000000
      2242       113  IM1H      DC1            17.9806863419        2.8639611917      -13.2656819948  IM1H      113             0.0000000000
      2243       113  IM1H      H1             18.0431760133        2.1079372776      -12.5054447370  IM1H      113             0.0000000000
      2244       113  IM1H      H2             17.8481550817        2.4894799460      -14.2985564904  IM1H      113             0.0000000000
      2245       113  IM1H      H3             17.1315465078        3.5936757632      -13.0551340211  IM1H      113             0.0000000000
      2246       113  IM1H      N1             19.1981490538        3.6990214600      -13.2525691659  IM1H      113             0.0000000000
      2247       113  IM1H      DN1            19.2175950738        3.6859633501      -13.2480122933  IM1H      113             0.0000000000
      2248       113  IM1H      C2             20.4592445393        3.1753661547      -13.3802722725  IM1H      113             0.0000000000
      2249       113  IM1H      DC2            20.4414861564        3.1749074877      -13.3794286198  IM1H      113             0.0000000000
      2250       113  IM1H      H4             20.6435510732        2.1157584181      -13.5073610056  IM1H      113             0.0000000000
      2251       113  IM1H      C3             21.3209680429        4.2389233008      -13.3902698401  IM1H      113             0.0000000000
      2252       113  IM1H      DC3            21.3329696195        4.2181614329      -13.3914641823  IM1H      113             0.0000000000
      2253       113  IM1H      H5             22.3996098073        4.2377683963      -13.4873245174  IM1H      113             0.0000000000
      2254       113  IM1H      C4             19.2402854402        5.0363490575      -13.2080562255  IM1H      113             0.0000000000
      2255       113  IM1H      DC4            19.2593260537        4.9768296738      -13.1758407143  IM1H      113             0.0000000000
      2256       113  IM1H      H6             18.3759623871        5.6981942126      -13.2628891575  IM1H      113             0.0000000000
      2257       113  IM1H      N2             20.5415736857        5.3804370698      -13.2844073754  IM1H      113             0.0000000000
      2258       113  IM1H      DN2            20.5555754858        5.3489121101      -13.2766379521  IM1H      113             0.0000000000
      2259       113  IM1H      H7             20.8271515419        6.3284763754      -13.4246456125  IM1H      113             0.0000000000
      2260       113  IM1H      LPN21          20.6409401574        5.6634470593      -13.2787815243  IM1H      113             0.0000000000
      2261       114  IM1H      C1             26.1388347456      -15.9960303288       -9.7939879272  IM1H      114             0.0000000000
      2262       114  IM1H      DC1            26.1524051491      -15.9674449313       -9.7875356101  IM1H      114             0.0000000000
      2263       114  IM1H      H1             27.1183378448      -15.9114596168      -10.3114263035  IM1H      114             0.0000000000
      2264       114  IM1H      H2             25.7265839273      -17.0225080136       -9.8974955465  IM1H      114             0.0000000000
      2265       114  IM1H      H3             26.2594827376      -15.7383329951       -8.7200432606  IM1H      114             0.0000000000
      2266       114  IM1H      N1             25.1923968647      -15.0630219958      -10.3972166924  IM1H      114             0.0000000000
      2267       114  IM1H      DN1            25.1934699045      -15.0427238092      -10.3992149982  IM1H      114             0.0000000000
      2268       114  IM1H      C2             25.0525776161      -14.8837985313      -11.7467141553  IM1H      114             0.0000000000
      2269       114  IM1H      DC2            25.0809447538      -14.8571684959      -11.7141743161  IM1H      114             0.0000000000
      2270       114  IM1H      H4             25.5628798100      -15.5060350477      -12.4714916305  IM1H      114             0.0000000000
      2271       114  IM1H      C3             24.0187667736      -14.0044371468      -11.9211673168  IM1H      114             0.0000000000
      2272       114  IM1H      DC3            24.0515332588      -13.9775504379      -11.9158899396  IM1H      114             0.0000000000
      2273       114  IM1H      H5             23.5097886176      -13.7286546305      -12.8364673990  IM1H      114             0.0000000000
      2274       114  IM1H      C4             24.2839927201      -14.3378813198       -9.7285495983  IM1H      114             0.0000000000
      2275       114  IM1H      DC4            24.3399331180      -14.3312119564       -9.7211247358  IM1H      114             0.0000000000
      2276       114  IM1H      H6             24.0980698653      -14.3846268477       -8.6555409554  IM1H      114             0.0000000000
      2277       114  IM1H      N2             23.5474732266      -13.6925846986      -10.6562670258  IM1H      114             0.0000000000
      2278       114  IM1H      DN2            23.5778931223      -13.6769774090      -10.6512113997  IM1H      114             0.0000000000
      2279       114  IM1H      H7             22.6204518752      -13.3506405511      -10.5023007501  IM1H      114             0.0000000000
      2280       114  IM1H      LPN21          23.3177916734      -13.5105731024      -10.5920941111  IM1H      114             0.0000000000
      2281       115  IM1H      C1             16.7788536737       -0.8548223797      -10.0549797636  IM1H      115             0.0000000000
      2282       115  IM1H      DC1            16.7653489281       -0.8484767209      -10.0436900740  IM1H      115             0.0000000000
      2283       115  IM1H      H1             17.3204364589       -0.2050252568      -10.7752385954  IM1H      115             0.0000000000
      2284       115  IM1H      H2             16.1402272797       -1.5780099798      -10.6058672506  IM1H      115             0.0000000000
      2285       115  IM1H      H3             17.5150695218       -1.4011806477       -9.4274450092  IM1H      115             0.0000000000
      2286       115  IM1H      N1             15.9205126813       -0.0080743192       -9.2059065983  IM1H      115             0.0000000000
      2287       115  IM1H      DN1            15.9124550796       -0.0021431796       -9.1873103207  IM1H      115             0.0000000000
      2288       115  IM1H      C2             14.9456550428        0.8124055580       -9.6986766628  IM1H      115             0.0000000000
      2289       115  IM1H      DC2            14.9729367704        0.7900035841       -9.6804578586  IM1H      115             0.0000000000
      2290       115  IM1H      H4             14.7483751941        0.9165816053      -10.7584488141  IM1H      115             0.0000000000
      2291       115  IM1H      C3             14.3771576711        1.4538670625       -8.6385923190  IM1H      115             0.0000000000
      2292       115  IM1H      DC3            14.3792584598        1.4431632969       -8.6353518870  IM1H      115             0.0000000000
      2293       115  IM1H      H5             13.5840488533        2.1913238509       -8.6336033196  IM1H      115             0.0000000000
      2294       115  IM1H      C4             15.9770338719        0.1017507429       -7.8715536303  IM1H      115             0.0000000000
      2295       115  IM1H      DC4            15.9915739609        0.0766417392       -7.8879728104  IM1H      115             0.0000000000
      2296       115  IM1H      H6             16.7004883634       -0.3911042293       -7.2220864832  IM1H      115             0.0000000000
      2297       115  IM1H      N2             15.0372702285        1.0069012777       -7.5147947039  IM1H      115             0.0000000000
      2298       115  IM1H      DN2            15.0433485584        0.9880099418       -7.5201132866  IM1H      115             0.0000000000
      2299       115  IM1H      H7             14.9464240206        1.4545532511       -6.6252135231  IM1H      115             0.0000000000
      2300       115  IM1H      LPN21          14.9840363736        1.0941502436       -7.2327419169  IM1H      115             0.0000000000
      2301       116  IM1H      C1              5.8893267418      -20.9904934418       12.3989830261  IM1H      116             0.0000000000
      2302       116  IM1H      DC1             5.9534412048      -20.9705424008       12.3874675334  IM1H      116             0.0000000000
      2303       116  IM1H      H1              5.1805212570      -20.1453244391       12.2662986515  IM1H      116             0.0000000000
      2304       116  IM1H      H2              6.2390305722      -21.0592396174       13.4512673008  IM1H      116             0.0000000000
      2305       116  IM1H      H3              5.3703149714      -21.9397398852       12.1462401292  IM1H      116             0.0000000000
      2306       116  IM1H      N1              7.0657591960      -20.8064954504       11.5547365492  IM1H      116             0.0000000000
      2307       116  IM1H      DN1             7.1152216918      -20.7932701915       11.5336215589  IM1H      116             0.0000000000
      2308       116  IM1H      C2              8.0110798878      -19.8348485662       11.7620918171  IM1H      116             0.0000000000
      2309       116  IM1H      DC2             8.0268013144      -19.8386385011       11.7532063832  IM1H      116             0.0000000000
      2310       116  IM1H      H4              7.8864394630      -19.0863431269       12.5348099880  IM1H      116             0.0000000000
      2311       116  IM1H      C3              8.9812223646      -20.0246976333       10.8177441840  IM1H      116             0.0000000000
      2312       116  IM1H      DC3             9.0020131661      -20.0060907290       10.8152424112  IM1H      116             0.0000000000
      2313       116  IM1H      H5              9.8931297294      -19.4660170604       10.6468934433  IM1H      116             0.0000000000
      2314       116  IM1H      C4              7.4092585231      -21.5824740845       10.5203397675  IM1H      116             0.0000000000
      2315       116  IM1H      DC4             7.4428567128      -21.5603143969       10.5447108149  IM1H      116             0.0000000000
      2316       116  IM1H      H6              6.7721902080      -22.3691369337       10.1161052766  IM1H      116             0.0000000000
      2317       116  IM1H      N2              8.5820555199      -21.1103025621       10.0585177500  IM1H      116             0.0000000000
      2318       116  IM1H      DN2             8.6042695424      -21.0967298239       10.0587129414  IM1H      116             0.0000000000
      2319       116  IM1H      H7              9.0526298875      -21.4619224828        9.2492444982  IM1H      116             0.0000000000
      2320       116  IM1H      LPN21           8.7298194226      -21.2275345589        9.8252314710  IM1H      116             0.0000000000
      2321       117  IM1H      C1            -22.6166323659      -19.9782827856       23.4066150550  IM1H      117             0.0000000000
      2322       117  IM1H      DC1           -22.6494412149      -19.9771689107       23.3810693844  IM1H      117             0.0000000000
      2323       117  IM1H      H1            -23.3181835551      -20.0582152838       24.2643782654  IM1H      117             0.0000000000
      2324       117  IM1H      H2            -22.5823303777      -18.9394374857       23.0142570341  IM1H      117             0.0000000000
      2325       117  IM1H      H3            -21.6062342953      -20.2815500545       23.7551056624  IM1H      117             0.0000000000
      2326       117  IM1H      N1            -23.0555387175      -20.8858206290       22.3382960294  IM1H      117             0.0000000000
      2327       117  IM1H      DN1           -23.0791152914      -20.8913660848       22.3164440028  IM1H      117             0.0000000000
      2328       117  IM1H      C2            -24.2964588132      -20.8567100559       21.7511451474  IM1H      117             0.0000000000
      2329       117  IM1H      DC2           -24.2960925835      -20.8472097178       21.7639836004  IM1H      117             0.0000000000
      2330       117  IM1H      H4            -25.0525795556      -20.1206824310       21.9949355456  IM1H      117             0.0000000000
      2331       117  IM1H      C3            -24.3202926830      -21.8700122696       20.8359408041  IM1H      117             0.0000000000
      2332       117  IM1H      DC3           -24.3357053223      -21.8732332846       20.8449415618  IM1H      117             0.0000000000
      2333       117  IM1H      H5            -25.1076654121      -22.1396257232       20.1429460198  IM1H      117             0.0000000000
      2334       117  IM1H      C4            -22.3094684930      -21.8671228858       21.8116539037  IM1H      117             0.0000000000
      2335       117  IM1H      DC4           -22.3595699076      -21.8424717065       21.8089802102  IM1H      117             0.0000000000
      2336       117  IM1H      H6            -21.2778185037      -22.0786086994       22.0928514328  IM1H      117             0.0000000000
      2337       117  IM1H      N2            -23.0819944244      -22.4808463709       20.8905765257  IM1H      117             0.0000000000
      2338       117  IM1H      DN2           -23.0976722485      -22.4844573370       20.8825073209  IM1H      117             0.0000000000
      2339       117  IM1H      H7            -22.8026298682      -23.2622781898       20.3326161711  IM1H      117             0.0000000000
      2340       117  IM1H      LPN21         -22.9929882148      -22.7147277793       20.7251154079  IM1H      117             0.0000000000
      2341       118  IM1H      C1             27.5554420290      -23.6208312664       21.9961508043  IM1H      118             0.0000000000
      2342       118  IM1H      DC1            27.5515963040      -23.5976599640       21.9855076812  IM1H      118             0.0000000000
      2343       118  IM1H      H1             28.2637610296      -23.8615350930       22.8175318737  IM1H      118             0.0000000000
      2344       118  IM1H      H2             28.0403436976      -23.8013709101       21.0129942510  IM1H      118             0.0000000000
      2345       118  IM1H      H3             26.6467240419      -24.2523294477       22.0949570090  IM1H      118             0.0000000000
      2346       118  IM1H      N1             27.1829273909      -22.2015872429       22.0964180110  IM1H      118             0.0000000000
      2347       118  IM1H      DN1            27.1820323445      -22.1783433824       22.0929848981  IM1H      118             0.0000000000
      2348       118  IM1H      C2             28.0764723413      -21.1636290684       21.9929828241  IM1H      118             0.0000000000
      2349       118  IM1H      DC2            28.0577529767      -21.1743102977       21.9891145704  IM1H      118             0.0000000000
      2350       118  IM1H      H4             29.1366442325      -21.3163511143       21.8329811434  IM1H      118             0.0000000000
      2351       118  IM1H      C3             27.3632552140      -20.0112601237       22.1816816763  IM1H      118             0.0000000000
      2352       118  IM1H      DC3            27.3676695183      -20.0062345682       22.1695159315  IM1H      118             0.0000000000
      2353       118  IM1H      H5             27.7149905250      -18.9872761890       22.2067450447  IM1H      118             0.0000000000
      2354       118  IM1H      C4             25.9467375482      -21.7341525279       22.3372344572  IM1H      118             0.0000000000
      2355       118  IM1H      DC4            25.9809392437      -21.7466359118       22.3155632663  IM1H      118             0.0000000000
      2356       118  IM1H      H6             25.0499197927      -22.3302028460       22.5061780327  IM1H      118             0.0000000000
      2357       118  IM1H      N2             26.0497044831      -20.3899740468       22.3963572365  IM1H      118             0.0000000000
      2358       118  IM1H      DN2            26.0590502089      -20.3888251201       22.3814829013  IM1H      118             0.0000000000
      2359       118  IM1H      H7             25.3212050517      -19.7781067751       22.7044270667  IM1H      118             0.0000000000
      2360       118  IM1H      LPN21          25.8187111206      -20.2058190917       22.4485972497  IM1H      118             0.0000000000
      2361       119  IM1H      C1              8.9683725471        3.4900045196      -10.5847911933  IM1H      119             0.0000000000
      2362       119  IM1H      DC1             9.0010856699        3.4981578465      -10.5851065424  IM1H      119             0.0000000000
      2363       119  IM1H      H1              8.8146683848        2.8268631792      -11.4628228514  IM1H      119             0.0000000000
      2364       119  IM1H      H2              7.9800835371        3.7932058568      -10.1777595229  IM1H      119             0.0000000000
      2365       119  IM1H      H3              9.5605469419        2.9604314107       -9.8081298717  IM1H      119             0.0000000000
      2366       119  IM1H      N1              9.6829415680        4.6906587163      -11.0308477425  IM1H      119             0.0000000000
      2367       119  IM1H      DN1             9.7075319181        4.7046981118      -11.0246852500  IM1H      119             0.0000000000
      2368       119  IM1H      C2              9.1820980863        5.5827800400      -11.9451285107  IM1H      119             0.0000000000
      2369       119  IM1H      DC2             9.2123706123        5.5681488652      -11.9079043881  IM1H      119             0.0000000000
      2370       119  IM1H      H4              8.2050217895        5.4835243671      -12.4015923336  IM1H      119             0.0000000000
      2371       119  IM1H      C3             10.1637006184        6.5088924698      -12.1666606456  IM1H      119             0.0000000000
      2372       119  IM1H      DC3            10.1743293219        6.5081388822      -12.1540849350  IM1H      119             0.0000000000
      2373       119  IM1H      H5             10.1655566869        7.3506279674      -12.8481053660  IM1H      119             0.0000000000
      2374       119  IM1H      C4             10.9264895257        5.0384024256      -10.6700900055  IM1H      119             0.0000000000
      2375       119  IM1H      DC4            10.9218463374        5.0030514774      -10.6632551395  IM1H      119             0.0000000000
      2376       119  IM1H      H6             11.5470057315        4.5341022857       -9.9293194557  IM1H      119             0.0000000000
      2377       119  IM1H      N2             11.2314412405        6.1480314821      -11.3699588838  IM1H      119             0.0000000000
      2378       119  IM1H      DN2            11.2313288589        6.1328088291      -11.3607763578  IM1H      119             0.0000000000
      2379       119  IM1H      H7             12.0719528702        6.6846183179      -11.2950271281  IM1H      119             0.0000000000
      2380       119  IM1H      LPN21          11.4943208752        6.2913812497      -11.3513808914  IM1H      119             0.0000000000
      2381       120  IM1H      C1             21.2842871128       12.7233250711       22.6282000634  IM1H      120             0.0000000000
      2382       120  IM1H      DC1            21.2653231038       12.7376399534       22.6145660286  IM1H      120             0.0000000000
      2383       120  IM1H      H1             21.4976262108       11.6331238633       22.6445939061  IM1H      120             0.0000000000
      2384       120  IM1H      H2             20.2254294005       12.9170914923       22.9031471863  IM1H      120             0.0000000000
      2385       120  IM1H      H3             21.9716703349       13.2430118195       23.3294496549  IM1H      120             0.0000000000
      2386       120  IM1H      N1             21.5133878694       13.2223573117       21.2694114000  IM1H      120             0.0000000000
      2387       120  IM1H      DN1            21.5192171720       13.2364359519       21.2546200542  IM1H      120             0.0000000000
      2388       120  IM1H      C2             20.7292132843       12.9192319020       20.1883171972  IM1H      120             0.0000000000
      2389       120  IM1H      DC2            20.7604340812       12.9351548120       20.2226970663  IM1H      120             0.0000000000
      2390       120  IM1H      H4             19.8956564819       12.2278044779       20.1878995682  IM1H      120             0.0000000000
      2391       120  IM1H      C3             21.2753373545       13.5705509784       19.1195458030  IM1H      120             0.0000000000
      2392       120  IM1H      DC3            21.3011625071       13.5914756990       19.1348280400  IM1H      120             0.0000000000
      2393       120  IM1H      H5             20.9417081433       13.5083132790       18.0910969622  IM1H      120             0.0000000000
      2394       120  IM1H      C4             22.5258112238       14.0249619361       20.9050451320  IM1H      120             0.0000000000
      2395       120  IM1H      DC4            22.4954165421       14.0330867589       20.9087031937  IM1H      120             0.0000000000
      2396       120  IM1H      H6             23.3179228002       14.3671439461       21.5710561848  IM1H      120             0.0000000000
      2397       120  IM1H      N2             22.3889285992       14.2372749215       19.5803456752  IM1H      120             0.0000000000
      2398       120  IM1H      DN2            22.3970906806       14.2575254253       19.5771289399  IM1H      120             0.0000000000
      2399       120  IM1H      H7             23.0639622996       14.6591168418       18.9750532686  IM1H      120             0.0000000000
      2400       120  IM1H      LPN21          22.5752840468       14.4049788955       19.4155821349  IM1H      120             0.0000000000
      2401       121  IM1H      C1              2.2998472904        1.0622472193       -5.9371726479  IM1H      121             0.0000000000
      2402       121  IM1H      DC1             2.2724298739        1.0403623819       -5.9207980737  IM1H      121             0.0000000000
      2403       121  IM1H      H1              2.3643791514        1.8571559357       -5.1636891173  IM1H      121             0.0000000000
      2404       121  IM1H      H2              2.1736611125        1.5362900237       -6.9340083757  IM1H      121             0.0000000000
      2405       121  IM1H      H3              3.2202872827        0.4403639217       -5.9178753357  IM1H      121             0.0000000000
      2406       121  IM1H      N1              1.1374687643        0.2176303071       -5.6771313510  IM1H      121             0.0000000000
      2407       121  IM1H      DN1             1.1089172204        0.1796898678       -5.6697622472  IM1H      121             0.0000000000
      2408       121  IM1H      C2             -0.1471647273        0.6836548398       -5.5340402888  IM1H      121             0.0000000000
      2409       121  IM1H      DC2            -0.1293643190        0.6374761547       -5.5396250430  IM1H      121             0.0000000000
      2410       121  IM1H      H4             -0.3872022059        1.7388738889       -5.4918056174  IM1H      121             0.0000000000
      2411       121  IM1H      C3             -0.9566413253       -0.4155609444       -5.4820472472  IM1H      121             0.0000000000
      2412       121  IM1H      DC3            -0.9585994008       -0.4402915896       -5.4786507850  IM1H      121             0.0000000000
      2413       121  IM1H      H5             -2.0367310855       -0.4473507542       -5.4093525574  IM1H      121             0.0000000000
      2414       121  IM1H      C4              1.1527935762       -1.1216643616       -5.7068300092  IM1H      121             0.0000000000
      2415       121  IM1H      DC4             1.1491217182       -1.1231089508       -5.6975841352  IM1H      121             0.0000000000
      2416       121  IM1H      H6              2.0448251351       -1.7235674285       -5.8803016092  IM1H      121             0.0000000000
      2417       121  IM1H      N2             -0.1302133236       -1.5195955689       -5.5909206033  IM1H      121             0.0000000000
      2418       121  IM1H      DN2            -0.1348687113       -1.5404071343       -5.5854918569  IM1H      121             0.0000000000
      2419       121  IM1H      H7             -0.4634920111       -2.4508108436       -5.7384449358  IM1H      121             0.0000000000
      2420       121  IM1H      LPN21          -0.2174164454       -1.8066388091       -5.5895812846  IM1H      121             0.0000000000
      2421       122  IM1H      C1              0.3595199827       28.2081197854       10.1251647768  IM1H      122             0.0000000000
      2422       122  IM1H      DC1             0.3549051649       28.1908004698       10.1112311109  IM1H      122             0.0000000000
      2423       122  IM1H      H1             -0.3975661697       28.8323906748       10.6461517401  IM1H      122             0.0000000000
      2424       122  IM1H      H2              0.5099990875       28.5684674220        9.0850558305  IM1H      122             0.0000000000
      2425       122  IM1H      H3              1.3335337625       28.2530099917       10.6577086963  IM1H      122             0.0000000000
      2426       122  IM1H      N1             -0.1057761312       26.8184912293       10.0829659102  IM1H      122             0.0000000000
      2427       122  IM1H      DN1            -0.1084648861       26.8000593304       10.0802933484  IM1H      122             0.0000000000
      2428       122  IM1H      C2             -1.1543289227       26.3707867436        9.3142340938  IM1H      122             0.0000000000
      2429       122  IM1H      DC2            -1.1217419749       26.3754137614        9.3313400687  IM1H      122             0.0000000000
      2430       122  IM1H      H4             -1.7689097890       27.0072840724        8.6896938554  IM1H      122             0.0000000000
      2431       122  IM1H      C3             -1.2631519122       25.0271650739        9.5488803263  IM1H      122             0.0000000000
      2432       122  IM1H      DC3            -1.2494674191       25.0226091513        9.5410374995  IM1H      122             0.0000000000
      2433       122  IM1H      H5             -2.0005839956       24.3347595359        9.1620244182  IM1H      122             0.0000000000
      2434       122  IM1H      C4              0.4300289704       25.8064917312       10.7830106895  IM1H      122             0.0000000000
      2435       122  IM1H      DC4             0.4202617959       25.8269096941       10.7626887243  IM1H      122             0.0000000000
      2436       122  IM1H      H6              1.2704973307       25.8924560313       11.4717218585  IM1H      122             0.0000000000
      2437       122  IM1H      N2             -0.2722427282       24.7011945509       10.4584778144  IM1H      122             0.0000000000
      2438       122  IM1H      DN2            -0.2675338011       24.6997424975       10.4543271855  IM1H      122             0.0000000000
      2439       122  IM1H      H7             -0.1413507824       23.7889249493       10.8465905202  IM1H      122             0.0000000000
      2440       122  IM1H      LPN21          -0.2171527307       24.4282346022       10.5700930398  IM1H      122             0.0000000000
      2441       123  IM1H      C1             24.5288879318      -11.9058455754       -1.1350812077  IM1H      123             0.0000000000
      2442       123  IM1H      DC1            24.4885881580      -11.8937418480       -1.1666570090  IM1H      123             0.0000000000
      2443       123  IM1H      H1             24.6034796632      -11.2622000775       -0.2325971100  IM1H      123             0.0000000000
      2444       123  IM1H      H2             25.3053806690      -11.6114092834       -1.8731105434  IM1H      123             0.0000000000
      2445       123  IM1H      H3             24.7036934881      -12.9651521803       -0.8493653791  IM1H      123             0.0000000000
      2446       123  IM1H      N1             23.1950086652      -11.7556991704       -1.7355053038  IM1H      123             0.0000000000
      2447       123  IM1H      DN1            23.1584186692      -11.7519588261       -1.7558565945  IM1H      123             0.0000000000
      2448       123  IM1H      C2             22.7550613370      -10.5857416842       -2.3014328414  IM1H      123             0.0000000000
      2449       123  IM1H      DC2            22.7494214207      -10.6100131026       -2.3033297771  IM1H      123             0.0000000000
      2450       123  IM1H      H4             23.3660262892       -9.6924959398       -2.3429403001  IM1H      123             0.0000000000
      2451       123  IM1H      C3             21.4730031669      -10.8078616732       -2.7201009406  IM1H      123             0.0000000000
      2452       123  IM1H      DC3            21.4651344566      -10.8024181700       -2.7331029040  IM1H      123             0.0000000000
      2453       123  IM1H      H5             20.7894363204      -10.1197153586       -3.2018477786  IM1H      123             0.0000000000
      2454       123  IM1H      C4             22.2339956348      -12.6943357374       -1.7939804089  IM1H      123             0.0000000000
      2455       123  IM1H      DC4            22.2440328199      -12.6782495369       -1.8035160989  IM1H      123             0.0000000000
      2456       123  IM1H      H6             22.3065291900      -13.6919157914       -1.3607680832  IM1H      123             0.0000000000
      2457       123  IM1H      N2             21.1682440215      -12.1164709503       -2.3922619170  IM1H      123             0.0000000000
      2458       123  IM1H      DN2            21.1690890381      -12.1101392961       -2.3994324176  IM1H      123             0.0000000000
      2459       123  IM1H      H7             20.2610488505      -12.5232249310       -2.4997241002  IM1H      123             0.0000000000
      2460       123  IM1H      LPN21          20.9074655645      -12.2555694881       -2.4437030788  IM1H      123             0.0000000000
      2461       124  IM1H      C1            -23.5897799946       -5.9683730670       20.3186968928  IM1H      124             0.0000000000
      2462       124  IM1H      DC1           -23.6040015212       -5.9591533951       20.3427840463  IM1H      124             0.0000000000
      2463       124  IM1H      H1            -24.1988330007       -5.7910512864       19.4065935972  IM1H      124             0.0000000000
      2464       124  IM1H      H2            -23.7231075163       -7.0031212745       20.7005881353  IM1H      124             0.0000000000
      2465       124  IM1H      H3            -22.5173787111       -5.8114325297       20.0744712687  IM1H      124             0.0000000000
      2466       124  IM1H      N1            -23.9774812488       -5.0116025642       21.3636351418  IM1H      124             0.0000000000
      2467       124  IM1H      DN1           -23.9824475356       -4.9876375636       21.3911183069  IM1H      124             0.0000000000
      2468       124  IM1H      C2            -25.1459810616       -5.0534773622       22.0832490382  IM1H      124             0.0000000000
      2469       124  IM1H      DC2           -25.1152958663       -5.0409684956       22.0987042998  IM1H      124             0.0000000000
      2470       124  IM1H      H4            -25.9560611008       -5.7282897097       21.8356856609  IM1H      124             0.0000000000
      2471       124  IM1H      C3            -25.0377489757       -4.1107336179       23.0678349163  IM1H      124             0.0000000000
      2472       124  IM1H      DC3           -25.0443518521       -4.0956161239       23.0743490409  IM1H      124             0.0000000000
      2473       124  IM1H      H5            -25.7340290322       -3.8731335182       23.8625859941  IM1H      124             0.0000000000
      2474       124  IM1H      C4            -23.1634388542       -4.0692666552       21.8578581122  IM1H      124             0.0000000000
      2475       124  IM1H      DC4           -23.1782826134       -4.0702039942       21.8531351258  IM1H      124             0.0000000000
      2476       124  IM1H      H6            -22.1550442242       -3.8755230174       21.4922029835  IM1H      124             0.0000000000
      2477       124  IM1H      N2            -23.8017575531       -3.5146911071       22.9083182121  IM1H      124             0.0000000000
      2478       124  IM1H      DN2           -23.8093775950       -3.5057619121       22.9069423085  IM1H      124             0.0000000000
      2479       124  IM1H      H7            -23.3872508320       -2.8833505406       23.5637518603  IM1H      124             0.0000000000
      2480       124  IM1H      LPN21         -23.6877403844       -3.2952730904       23.0781882188  IM1H      124             0.0000000000
      2481       125  IM1H      C1             -3.6555598320       -9.0722961631       -6.6826420588  IM1H      125             0.0000000000
      2482       125  IM1H      DC1            -3.6221827962       -9.0326667804       -6.6875115983  IM1H      125             0.0000000000
      2483       125  IM1H      H1             -4.0098410237      -10.0757289723       -7.0019043875  IM1H      125             0.0000000000
      2484       125  IM1H      H2             -4.5018761739       -8.3551566896       -6.7441288405  IM1H      125             0.0000000000
      2485       125  IM1H      H3             -3.2759611862       -9.1406353593       -5.6407420528  IM1H      125             0.0000000000
      2486       125  IM1H      N1             -2.5866381136       -8.6337871965       -7.5866929330  IM1H      125             0.0000000000
      2487       125  IM1H      DN1            -2.5644405762       -8.6184458710       -7.5977092218  IM1H      125             0.0000000000
      2488       125  IM1H      C2             -2.7732785425       -8.3745404892       -8.9219374644  IM1H      125             0.0000000000
      2489       125  IM1H      DC2            -2.7719648783       -8.3710675544       -8.8876390243  IM1H      125             0.0000000000
      2490       125  IM1H      H4             -3.7194045889       -8.5134377434       -9.4303094317  IM1H      125             0.0000000000
      2491       125  IM1H      C3             -1.5532164975       -8.0166118510       -9.4276136596  IM1H      125             0.0000000000
      2492       125  IM1H      DC3            -1.5603272318       -8.0148660945       -9.4075616727  IM1H      125             0.0000000000
      2493       125  IM1H      H5             -1.2845169812       -7.7652348422      -10.4461906912  IM1H      125             0.0000000000
      2494       125  IM1H      C4             -1.2985478921       -8.4538019948       -7.2489023168  IM1H      125             0.0000000000
      2495       125  IM1H      DC4            -1.3273335444       -8.4348114319       -7.2285748999  IM1H      125             0.0000000000
      2496       125  IM1H      H6             -0.8680522768       -8.6705372019       -6.2712523921  IM1H      125             0.0000000000
      2497       125  IM1H      N2             -0.6546954387       -8.0759314476       -8.3764070927  IM1H      125             0.0000000000
      2498       125  IM1H      DN2            -0.6651968242       -8.0729103150       -8.3599428010  IM1H      125             0.0000000000
      2499       125  IM1H      H7              0.3304953867       -7.9584369272       -8.5012833352  IM1H      125             0.0000000000
      2500       125  IM1H      LPN21          -0.3612356111       -8.0153337839       -8.3908726627  IM1H      125             0.0000000000
      2501       126  IM1H      C1            -11.8458765697       -7.2461040154        0.8036671451  IM1H      126             0.0000000000
      2502       126  IM1H      DC1           -11.8371771567       -7.2614533024        0.8003434282  IM1H      126             0.0000000000
      2503       126  IM1H      H1            -11.9497638115       -6.1795367916        1.0968612774  IM1H      126             0.0000000000
      2504       126  IM1H      H2            -11.6426944936       -7.8679917848        1.7016056999  IM1H      126             0.0000000000
      2505       126  IM1H      H3            -12.7769070650       -7.5875292819        0.3027360081  IM1H      126             0.0000000000
      2506       126  IM1H      N1            -10.7166645996       -7.3740525888       -0.1318264987  IM1H      126             0.0000000000
      2507       126  IM1H      DN1           -10.7017446262       -7.3779598723       -0.1347127754  IM1H      126             0.0000000000
      2508       126  IM1H      C2             -9.4141850830       -7.0775496166        0.1903752758  IM1H      126             0.0000000000
      2509       126  IM1H      DC2            -9.4391489443       -7.0848016666        0.1828586622  IM1H      126             0.0000000000
      2510       126  IM1H      H4             -9.1061728541       -6.7226456688        1.1661112312  IM1H      126             0.0000000000
      2511       126  IM1H      C3             -8.6703954139       -7.3101181832       -0.9351476868  IM1H      126             0.0000000000
      2512       126  IM1H      DC3            -8.6638405901       -7.3077813657       -0.9297515188  IM1H      126             0.0000000000
      2513       126  IM1H      H5             -7.6033152840       -7.1902692295       -1.0760917346  IM1H      126             0.0000000000
      2514       126  IM1H      C4            -10.8026734948       -7.7786692885       -1.4115911095  IM1H      126             0.0000000000
      2515       126  IM1H      DC4           -10.8042143254       -7.7775134240       -1.3616792845  IM1H      126             0.0000000000
      2516       126  IM1H      H6            -11.7064209373       -8.0600650176       -1.9521066077  IM1H      126             0.0000000000
      2517       126  IM1H      N2             -9.5507340858       -7.7423902196       -1.9139827697  IM1H      126             0.0000000000
      2518       126  IM1H      DN2            -9.5477371231       -7.7409795560       -1.8914269650  IM1H      126             0.0000000000
      2519       126  IM1H      H7             -9.3123322949       -7.9766025160       -2.8564843274  IM1H      126             0.0000000000
      2520       126  IM1H      LPN21          -9.4801215143       -7.8177021236       -2.1956598576  IM1H      126             0.0000000000
      2521       127  IM1H      C1             -1.6096618115       -6.3461679779       -1.7955698570  IM1H      127             0.0000000000
      2522       127  IM1H      DC1            -1.6245883835       -6.3360322324       -1.8150737033  IM1H      127             0.0000000000
      2523       127  IM1H      H1             -1.9532071058       -7.2373669661       -1.2280647961  IM1H      127             0.0000000000
      2524       127  IM1H      H2             -1.2718879861       -5.5635064546       -1.0830596576  IM1H      127             0.0000000000
      2525       127  IM1H      H3             -0.7750163579       -6.6286091130       -2.4722640068  IM1H      127             0.0000000000
      2526       127  IM1H      N1             -2.7376681329       -5.8230079394       -2.5809309957  IM1H      127             0.0000000000
      2527       127  IM1H      DN1            -2.7485422654       -5.8156377549       -2.6042960810  IM1H      127             0.0000000000
      2528       127  IM1H      C2             -3.9053015275       -5.3603220185       -2.0281750903  IM1H      127             0.0000000000
      2529       127  IM1H      DC2            -3.8747966459       -5.3885492057       -2.0531287331  IM1H      127             0.0000000000
      2530       127  IM1H      H4             -4.0859385957       -5.2953187439       -0.9623262155  IM1H      127             0.0000000000
      2531       127  IM1H      C3             -4.6906092246       -4.9372257783       -3.0651071952  IM1H      127             0.0000000000
      2532       127  IM1H      DC3            -4.6811271123       -4.9662344699       -3.0796432399  IM1H      127             0.0000000000
      2533       127  IM1H      H5             -5.6482999822       -4.4336661591       -3.0187917261  IM1H      127             0.0000000000
      2534       127  IM1H      C4             -2.7747291201       -5.7037071526       -3.9190366679  IM1H      127             0.0000000000
      2535       127  IM1H      DC4            -2.7543816729       -5.7123732063       -3.9061676232  IM1H      127             0.0000000000
      2536       127  IM1H      H6             -1.9716089034       -5.9757672170       -4.6039317246  IM1H      127             0.0000000000
      2537       127  IM1H      N2             -3.9717698594       -5.1589551534       -4.2237023452  IM1H      127             0.0000000000
      2538       127  IM1H      DN2            -3.9578402767       -5.1666621699       -4.2288785131  IM1H      127             0.0000000000
      2539       127  IM1H      H7             -4.3029378428       -4.8977032171       -5.1303859684  IM1H      127             0.0000000000
      2540       127  IM1H      LPN21          -4.0629295751       -5.0973648371       -4.5028018600  IM1H      127             0.0000000000
      2541       128  IM1H      C1            -23.8869247303       26.2082990630       21.4597577326  IM1H      128             0.0000000000
      2542       128  IM1H      DC1           -23.9127468182       26.2141742817       21.4993043769  IM1H      128             0.0000000000
      2543       128  IM1H      H1            -24.9060142878       26.3671378553       21.0467835058  IM1H      128             0.0000000000
      2544       128  IM1H      H2            -23.4168456264       25.3199316371       20.9863129582  IM1H      128             0.0000000000
      2545       128  IM1H      H3            -23.2468763385       27.0960222732       21.2684293272  IM1H      128             0.0000000000
      2546       128  IM1H      N1            -23.9829668461       25.9770562959       22.9061522771  IM1H      128             0.0000000000
      2547       128  IM1H      DN1           -23.9949627659       25.9731049415       22.9468168694  IM1H      128             0.0000000000
      2548       128  IM1H      C2            -24.6372014270       24.9174717858       23.4869063593  IM1H      128             0.0000000000
      2549       128  IM1H      DC2           -24.6312760696       24.9424647091       23.5095608048  IM1H      128             0.0000000000
      2550       128  IM1H      H4            -25.1227518970       24.1435086735       22.9054333647  IM1H      128             0.0000000000
      2551       128  IM1H      C3            -24.4576084525       25.0402434136       24.8358950475  IM1H      128             0.0000000000
      2552       128  IM1H      DC3           -24.4632553273       25.0367207254       24.8664291153  IM1H      128             0.0000000000
      2553       128  IM1H      H5            -24.8042403107       24.3809425371       25.6220615115  IM1H      128             0.0000000000
      2554       128  IM1H      C4            -23.4083748035       26.7456337085       23.8423368697  IM1H      128             0.0000000000
      2555       128  IM1H      DC4           -23.4506350323       26.7358786810       23.8537386263  IM1H      128             0.0000000000
      2556       128  IM1H      H6            -22.7033342311       27.5489716007       23.6286407720  IM1H      128             0.0000000000
      2557       128  IM1H      N2            -23.6881916956       26.1734409974       25.0300766731  IM1H      128             0.0000000000
      2558       128  IM1H      DN2           -23.6972668458       26.1705789504       25.0566194463  IM1H      128             0.0000000000
      2559       128  IM1H      H7            -23.1886672505       26.3742039504       25.8727922630  IM1H      128             0.0000000000
      2560       128  IM1H      LPN21         -23.5945990407       26.2806953187       25.2941541722  IM1H      128             0.0000000000
      2561       129  IM1H      C1              3.2370246472       14.5841347777       -6.7973405815  IM1H      129             0.0000000000
      2562       129  IM1H      DC1             3.2951312592       14.5851049982       -6.7689572474  IM1H      129             0.0000000000
      2563       129  IM1H      H1              2.1344064585       14.5339747994       -6.6706989353  IM1H      129             0.0000000000
      2564       129  IM1H      H2              3.6410883392       13.5655603957       -6.9805338207  IM1H      129             0.0000000000
      2565       129  IM1H      H3              3.4499082183       15.2462526946       -7.6637131629  IM1H      129             0.0000000000
      2566       129  IM1H      N1              3.8395902906       15.1354078602       -5.5677749376  IM1H      129             0.0000000000
      2567       129  IM1H      DN1             3.8746719644       15.1577740257       -5.5380611555  IM1H      129             0.0000000000
      2568       129  IM1H      C2              3.7311318293       14.5794842026       -4.3171767423  IM1H      129             0.0000000000
      2569       129  IM1H      DC2             3.7568544105       14.5977735978       -4.3336197790  IM1H      129             0.0000000000
      2570       129  IM1H      H4              3.1756402180       13.6712186021       -4.1187537878  IM1H      129             0.0000000000
      2571       129  IM1H      C3              4.3486478898       15.4343263490       -3.4460495283  IM1H      129             0.0000000000
      2572       129  IM1H      DC3             4.3753874556       15.4475561661       -3.4582008574  IM1H      129             0.0000000000
      2573       129  IM1H      H5              4.4174146459       15.3672720853       -2.3673170040  IM1H      129             0.0000000000
      2574       129  IM1H      C4              4.5095882542       16.2930789533       -5.4984298078  IM1H      129             0.0000000000
      2575       129  IM1H      DC4             4.5605212538       16.2819541010       -5.5092475629  IM1H      129             0.0000000000
      2576       129  IM1H      H6              4.5478816327       17.0036288997       -6.3241127924  IM1H      129             0.0000000000
      2577       129  IM1H      N2              4.8126816262       16.4940778089       -4.1980143070  IM1H      129             0.0000000000
      2578       129  IM1H      DN2             4.8414509983       16.5103888794       -4.1982264708  IM1H      129             0.0000000000
      2579       129  IM1H      H7              5.0126818116       17.3780607529       -3.7754340417  IM1H      129             0.0000000000
      2580       129  IM1H      LPN21           4.9588588346       16.7343295870       -4.0935571057  IM1H      129             0.0000000000
      2581       130  IM1H      C1            -12.2602113408        0.8959681425      -11.5819127747  IM1H      130             0.0000000000
      2582       130  IM1H      DC1           -12.2322326055        0.9004565689      -11.5887079989  IM1H      130             0.0000000000
      2583       130  IM1H      H1            -11.3441617467        1.3242925087      -11.1217906398  IM1H      130             0.0000000000
      2584       130  IM1H      H2            -12.2097092757        0.9263536395      -12.6913483352  IM1H      130             0.0000000000
      2585       130  IM1H      H3            -12.4052836898       -0.1540760938      -11.2492235560  IM1H      130             0.0000000000
      2586       130  IM1H      N1            -13.4132092941        1.6924878342      -11.1462101655  IM1H      130             0.0000000000
      2587       130  IM1H      DN1           -13.3968449856        1.7046816224      -11.1539000975  IM1H      130             0.0000000000
      2588       130  IM1H      C2            -13.6073899409        3.0251001024      -11.4254356845  IM1H      130             0.0000000000
      2589       130  IM1H      DC2           -13.5981494931        3.0033871393      -11.4249583747  IM1H      130             0.0000000000
      2590       130  IM1H      H4            -12.9111685859        3.6279685554      -11.9952729008  IM1H      130             0.0000000000
      2591       130  IM1H      C3            -14.8408342092        3.3558288248      -10.9360765729  IM1H      130             0.0000000000
      2592       130  IM1H      DC3           -14.8296515705        3.3535420905      -10.9504214066  IM1H      130             0.0000000000
      2593       130  IM1H      H5            -15.3801102382        4.2938727656      -10.9823791624  IM1H      130             0.0000000000
      2594       130  IM1H      C4            -14.4696541009        1.1980811559      -10.4959538415  IM1H      130             0.0000000000
      2595       130  IM1H      DC4           -14.4236766142        1.2296822641      -10.5642931670  IM1H      130             0.0000000000
      2596       130  IM1H      H6            -14.5869660526        0.1892303290      -10.1002798404  IM1H      130             0.0000000000
      2597       130  IM1H      N2            -15.3471358854        2.2102503028      -10.3622741024  IM1H      130             0.0000000000
      2598       130  IM1H      DN2           -15.3521943998        2.2180745322      -10.3804006990  IM1H      130             0.0000000000
      2599       130  IM1H      H7            -16.1937096229        2.1566517672       -9.8327081443  IM1H      130             0.0000000000
      2600       130  IM1H      LPN21         -15.6132608910        2.1845419732      -10.2261985234  IM1H      130             0.0000000000
      2601       131  IM1H      C1             -5.0476185454        4.8638138879      -18.7249045875  IM1H      131             0.0000000000
      2602       131  IM1H      DC1            -5.0268679508        4.8529836583      -18.7411267582  IM1H      131             0.0000000000
      2603       131  IM1H      H1             -5.3570258826        3.9192662330      -18.2284996831  IM1H      131             0.0000000000
      2604       131  IM1H      H2             -5.7885030405        5.1492497149      -19.5020387809  IM1H      131             0.0000000000
      2605       131  IM1H      H3             -4.9743910759        5.6725241878      -17.9666523942  IM1H      131             0.0000000000
      2606       131  IM1H      N1             -3.7368158122        4.6607881626      -19.3580391980  IM1H      131             0.0000000000
      2607       131  IM1H      DN1            -3.7237732964        4.6423534631      -19.3793527077  IM1H      131             0.0000000000
      2608       131  IM1H      C2             -3.4648772427        3.6823709384      -20.2787842402  IM1H      131             0.0000000000
      2609       131  IM1H      DC2            -3.4645454904        3.6901850948      -20.2785077842  IM1H      131             0.0000000000
      2610       131  IM1H      H4             -4.2031680880        2.9549714226      -20.5929586696  IM1H      131             0.0000000000
      2611       131  IM1H      C3             -2.1295275490        3.7661844787      -20.5564974906  IM1H      131             0.0000000000
      2612       131  IM1H      DC3            -2.1312920063        3.7621720572      -20.5816418591  IM1H      131             0.0000000000
      2613       131  IM1H      H5             -1.5128178051        3.1207298003      -21.1696421320  IM1H      131             0.0000000000
      2614       131  IM1H      C4             -2.6228350468        5.3376633190      -19.0609226541  IM1H      131             0.0000000000
      2615       131  IM1H      DC4            -2.6609509251        5.3028477183      -19.1011038591  IM1H      131             0.0000000000
      2616       131  IM1H      H6             -2.5157183213        6.1111566474      -18.3004398614  IM1H      131             0.0000000000
      2617       131  IM1H      N2             -1.6216155569        4.7634966179      -19.7536993264  IM1H      131             0.0000000000
      2618       131  IM1H      DN2            -1.6235664354        4.7546014418      -19.7787265647  IM1H      131             0.0000000000
      2619       131  IM1H      H7             -0.6512084393        4.9277051892      -19.5766525211  IM1H      131             0.0000000000
      2620       131  IM1H      LPN21          -1.3334775358        4.8443279076      -19.7326569074  IM1H      131             0.0000000000
      2621       132  IM1H      C1             20.6418507289      -28.8501688331        7.3089537889  IM1H      132             0.0000000000
      2622       132  IM1H      DC1            20.6650362064      -28.8464695158        7.3379911199  IM1H      132             0.0000000000
      2623       132  IM1H      H1             20.9280218811      -28.3851904953        6.3413680209  IM1H      132             0.0000000000
      2624       132  IM1H      H2             19.5685566106      -28.6452477278        7.5098718734  IM1H      132             0.0000000000
      2625       132  IM1H      H3             20.8200406943      -29.9455779377        7.2574928341  IM1H      132             0.0000000000
      2626       132  IM1H      N1             21.4502735587      -28.2553650472        8.3852109652  IM1H      132             0.0000000000
      2627       132  IM1H      DN1            21.4727037154      -28.2514795702        8.4086970425  IM1H      132             0.0000000000
      2628       132  IM1H      C2             21.4059363373      -26.9275667839        8.7435790712  IM1H      132             0.0000000000
      2629       132  IM1H      DC2            21.4362693455      -26.9647007813        8.7445774866  IM1H      132             0.0000000000
      2630       132  IM1H      H4             20.7284335480      -26.2089206659        8.2992517960  IM1H      132             0.0000000000
      2631       132  IM1H      C3             22.3515173948      -26.7530338145        9.7169688924  IM1H      132             0.0000000000
      2632       132  IM1H      DC3            22.3621257067      -26.7604671311        9.7409659794  IM1H      132             0.0000000000
      2633       132  IM1H      H5             22.6488938590      -25.8286497554       10.1965211314  IM1H      132             0.0000000000
      2634       132  IM1H      C4             22.3782011783      -28.9039770879        9.1082402666  IM1H      132             0.0000000000
      2635       132  IM1H      DC4            22.3635689839      -28.9014510715        9.1011694484  IM1H      132             0.0000000000
      2636       132  IM1H      H6             22.6345758781      -29.9597117720        9.0199436637  IM1H      132             0.0000000000
      2637       132  IM1H      N2             22.9428249342      -27.9887072070        9.9237376146  IM1H      132             0.0000000000
      2638       132  IM1H      DN2            22.9387225987      -27.9883351352        9.9378751488  IM1H      132             0.0000000000
      2639       132  IM1H      H7             23.7860786104      -28.1323986968       10.4416912741  IM1H      132             0.0000000000
      2640       132  IM1H      LPN21          23.1628582921      -28.0497467516       10.1183127810  IM1H      132             0.0000000000
      2641       133  IM1H      C1              3.0798015721      -13.3482844763      -11.5529818635  IM1H      133             0.0000000000
      2642       133  IM1H      DC1             3.1068908188      -13.3295869593      -11.5806688010  IM1H      133             0.0000000000
      2643       133  IM1H      H1              2.5761186643      -14.3029073367      -11.8162682558  IM1H      133             0.0000000000
      2644       133  IM1H      H2              2.5463342158      -12.8953281862      -10.6901005393  IM1H      133             0.0000000000
      2645       133  IM1H      H3              4.1449020505      -13.5276729523      -11.2927862725  IM1H      133             0.0000000000
      2646       133  IM1H      N1              2.9817171617      -12.4347887061      -12.6978470235  IM1H      133             0.0000000000
      2647       133  IM1H      DN1             2.9966243012      -12.4161678079      -12.7228665625  IM1H      133             0.0000000000
      2648       133  IM1H      C2              1.7892511620      -12.0250319482      -13.2345388326  IM1H      133             0.0000000000
      2649       133  IM1H      DC2             1.8328597831      -12.0207496791      -13.2294526511  IM1H      133             0.0000000000
      2650       133  IM1H      H4              0.8319578089      -12.3742681905      -12.8677793975  IM1H      133             0.0000000000
      2651       133  IM1H      C3              2.0933091756      -11.1754808404      -14.2612294086  IM1H      133             0.0000000000
      2652       133  IM1H      DC3             2.1132765012      -11.1626004689      -14.2582747777  IM1H      133             0.0000000000
      2653       133  IM1H      H5              1.4167682138      -10.6804041291      -14.9468534870  IM1H      133             0.0000000000
      2654       133  IM1H      C4              4.0105188313      -11.8776820488      -13.3574420313  IM1H      133             0.0000000000
      2655       133  IM1H      DC4             4.0174419865      -11.8901220293      -13.3436921036  IM1H      133             0.0000000000
      2656       133  IM1H      H6              5.0663488120      -12.0227782305      -13.1288153707  IM1H      133             0.0000000000
      2657       133  IM1H      N2              3.4714652455      -11.0985520446      -14.3177150978  IM1H      133             0.0000000000
      2658       133  IM1H      DN2             3.4870806627      -11.1003590868      -14.3193659995  IM1H      133             0.0000000000
      2659       133  IM1H      H7              3.9634709246      -10.5068871656      -14.9563566895  IM1H      133             0.0000000000
      2660       133  IM1H      LPN21           3.6316583469      -10.9351841579      -14.5117488676  IM1H      133             0.0000000000
      2661       134  IM1H      C1             14.1011414442       25.5659727660       -1.0737532466  IM1H      134             0.0000000000
      2662       134  IM1H      DC1            14.0980680475       25.5625923406       -1.0961144108  IM1H      134             0.0000000000
      2663       134  IM1H      H1             14.5285406033       26.2441674866       -1.8429755045  IM1H      134             0.0000000000
      2664       134  IM1H      H2             14.8826318457       25.2785841505       -0.3382251797  IM1H      134             0.0000000000
      2665       134  IM1H      H3             13.2640189548       26.0657785962       -0.5410797351  IM1H      134             0.0000000000
      2666       134  IM1H      N1             13.6110757999       24.3434884188       -1.7272108834  IM1H      134             0.0000000000
      2667       134  IM1H      DN1            13.6101000560       24.3345652819       -1.7397480292  IM1H      134             0.0000000000
      2668       134  IM1H      C2             14.4077808067       23.4485409827       -2.4047837338  IM1H      134             0.0000000000
      2669       134  IM1H      DC2            14.3881781923       23.4770354410       -2.4021449554  IM1H      134             0.0000000000
      2670       134  IM1H      H4             15.4833775318       23.5363608328       -2.4957142497  IM1H      134             0.0000000000
      2671       134  IM1H      C3             13.5966464572       22.4182298273       -2.7941704897  IM1H      134             0.0000000000
      2672       134  IM1H      DC3            13.5901332397       22.4264620905       -2.7961520678  IM1H      134             0.0000000000
      2673       134  IM1H      H5             13.8710186367       21.5176625179       -3.3295091008  IM1H      134             0.0000000000
      2674       134  IM1H      C4             12.3475046855       23.8954611368       -1.6751569895  IM1H      134             0.0000000000
      2675       134  IM1H      DC4            12.3886412209       23.9152316031       -1.6785431522  IM1H      134             0.0000000000
      2676       134  IM1H      H6             11.5001773980       24.3865099724       -1.1966096995  IM1H      134             0.0000000000
      2677       134  IM1H      N2             12.3287381105       22.7179438423       -2.3294386472  IM1H      134             0.0000000000
      2678       134  IM1H      DN2            12.3311158266       22.7182891478       -2.3355506377  IM1H      134             0.0000000000
      2679       134  IM1H      H7             11.5326992051       22.1155597763       -2.3882221315  IM1H      134             0.0000000000
      2680       134  IM1H      LPN21          12.0827038408       22.5501474201       -2.3656532690  IM1H      134             0.0000000000
      2681       135  IM1H      C1             24.5890693578        7.2022957563      -19.0871224970  IM1H      135             0.0000000000
      2682       135  IM1H      DC1            24.5769470447        7.1865599313      -19.0631318061  IM1H      135             0.0000000000
      2683       135  IM1H      H1             23.4967763022        7.4053131584      -19.0880252569  IM1H      135             0.0000000000
      2684       135  IM1H      H2             24.8505530468        6.5244250370      -19.9276214970  IM1H      135             0.0000000000
      2685       135  IM1H      H3             25.1479735170        8.1570719863      -19.1888549565  IM1H      135             0.0000000000
      2686       135  IM1H      N1             24.9611747739        6.5565774375      -17.8211623158  IM1H      135             0.0000000000
      2687       135  IM1H      DN1            24.9599332011        6.5399644582      -17.7957587372  IM1H      135             0.0000000000
      2688       135  IM1H      C2             24.4751258003        5.3452791469      -17.3896450480  IM1H      135             0.0000000000
      2689       135  IM1H      DC2            24.4717069220        5.3654096911      -17.3653347891  IM1H      135             0.0000000000
      2690       135  IM1H      H4             23.8306313215        4.7333674546      -18.0085795741  IM1H      135             0.0000000000
      2691       135  IM1H      C3             25.0600839462        5.0969998511      -16.1788469647  IM1H      135             0.0000000000
      2692       135  IM1H      DC3            25.0403704089        5.0845381374      -16.1566634406  IM1H      135             0.0000000000
      2693       135  IM1H      H5             24.9774959353        4.2236601269      -15.5437517383  IM1H      135             0.0000000000
      2694       135  IM1H      C4             25.8191632277        7.0658812032      -16.9246298925  IM1H      135             0.0000000000
      2695       135  IM1H      DC4            25.7924553991        7.0373686406      -16.9343465734  IM1H      135             0.0000000000
      2696       135  IM1H      H6             26.3463338730        8.0143372051      -17.0276945474  IM1H      135             0.0000000000
      2697       135  IM1H      N2             25.8926210927        6.1709790908      -15.9164190456  IM1H      135             0.0000000000
      2698       135  IM1H      DN2            25.8787965820        6.1613114565      -15.9058546691  IM1H      135             0.0000000000
      2699       135  IM1H      H7             26.5565149852        6.2107401848      -15.1696500351  IM1H      135             0.0000000000
      2700       135  IM1H      LPN21          26.0656697585        6.2052260989      -15.6737643491  IM1H      135             0.0000000000
      2701       136  BUTA      C1             20.8375344538       28.3078321697       14.5563087766  BUTA      1               0.0000000000
      2702       136  BUTA      DC1            20.8318061015       28.3411317104       14.5446497435  BUTA      1               0.0000000000
      2703       136  BUTA      C2             21.7088981159       27.2243762509       15.1856517372  BUTA      1               0.0000000000
      2704       136  BUTA      DC2            21.7812841246       27.3242726868       15.1647243503  BUTA      1               0.0000000000
      2705       136  BUTA      C3             21.1155848874       25.8137273818       15.0494810350  BUTA      1               0.0000000000
      2706       136  BUTA      DC3            21.1310443630       25.9012979653       15.0483799775  BUTA      1               0.0000000000
      2707       136  BUTA      C4             19.7772852193       25.6175768523       15.6722296790  BUTA      1               0.0000000000
      2708       136  BUTA      DC4            19.8261931520       25.6362459739       15.6883733363  BUTA      1               0.0000000000
      2709       136  BUTA      O1             19.7753190681       25.7810807993       16.9317048395  BUTA      1               0.0000000000
      2710       136  BUTA      DO1            19.7901492507       25.7958597373       16.9355886817  BUTA      1               0.0000000000
      2711       136  BUTA      O2             18.7994421038       25.5649024782       14.8694315717  BUTA      1               0.0000000000
      2712       136  BUTA      DO2            18.8447151596       25.5690879871       14.8948927788  BUTA      1               0.0000000000
      2713       136  BUTA      H1             20.7022428417       28.1003021711       13.4732813165  BUTA      1               0.0000000000
      2714       136  BUTA      H2             19.8257635312       28.2982745334       15.0151652396  BUTA      1               0.0000000000
      2715       136  BUTA      H3             21.2838169805       29.3177413287       14.6797445807  BUTA      1               0.0000000000
      2716       136  BUTA      H4             21.8459872328       27.4361738987       16.2676264740  BUTA      1               0.0000000000
      2717       136  BUTA      H5             22.7128690365       27.2265019468       14.7098798675  BUTA      1               0.0000000000
      2718       136  BUTA      H6             21.8468303218       25.0986980960       15.4834559617  BUTA      1               0.0000000000
      2719       136  BUTA      H7             21.1007957858       25.5757912173       13.9643595376  BUTA      1               0.0000000000
      2720       136  BUTA      H8             19.0480636609       25.5484919625       13.9330133868  BUTA      1               0.0000000000
      2721       136  BUTA      H9             18.9130095198       25.6506526114       17.3540456151  BUTA      1               0.0000000000
      2722       136  BUTA      LPO11          20.0973003910       25.8621765015       17.0423914004  BUTA      1               0.0000000000
      2723       136  BUTA      LPO12          19.4529671093       25.7308069505       17.0584398182  BUTA      1               0.0000000000
      2724       136  BUTA      LPO21          18.9126891999       25.6014236491       14.5402791764  BUTA      1               0.0000000000
      2725       136  BUTA      LPO22          18.5013136943       25.5184221356       15.0467985055  BUTA      1               0.0000000000
      2726       137  BUTA      C1             -2.2992515828       13.9018706144       -6.0640245685  BUTA      2               0.0000000000
      2727       137  BUTA      DC1            -2.2459970024       13.9101118060       -6.0692658401  BUTA      2               0.0000000000
      2728       137  BUTA      C2             -2.6256210588       15.3781058261       -6.2540592493  BUTA      2               0.0000000000
      2729       137  BUTA      DC2            -2.6592461140       15.3904686574       -6.2223656077  BUTA      2               0.0000000000
      2730       137  BUTA      C3             -2.4026781168       15.7856906786       -7.7199751178  BUTA      2               0.0000000000
      2731       137  BUTA      DC3            -2.3213516372       15.7726856041       -7.7303494918  BUTA      2               0.0000000000
      2732       137  BUTA      C4             -0.9988043660       15.6179419793       -8.2192255796  BUTA      2               0.0000000000
      2733       137  BUTA      DC4            -0.8430194899       15.7509308496       -8.1018730981  BUTA      2               0.0000000000
      2734       137  BUTA      O1             -0.1232922833       16.2315796540       -7.5525311992  BUTA      2               0.0000000000
      2735       137  BUTA      DO1             0.0039853361       16.3013662153       -7.3766642655  BUTA      2               0.0000000000
      2736       137  BUTA      O2             -0.8400255163       14.7625340211       -9.1300362180  BUTA      2               0.0000000000
      2737       137  BUTA      DO2            -0.8841000310       14.8440075569       -9.0374626415  BUTA      2               0.0000000000
      2738       137  BUTA      H1             -2.8669254837       13.2889924083       -6.7964504327  BUTA      2               0.0000000000
      2739       137  BUTA      H2             -1.2168544318       13.7070362655       -6.2214316383  BUTA      2               0.0000000000
      2740       137  BUTA      H3             -2.6112205089       13.5560646621       -5.0553548341  BUTA      2               0.0000000000
      2741       137  BUTA      H4             -2.0015678399       16.0045221380       -5.5813920329  BUTA      2               0.0000000000
      2742       137  BUTA      H5             -3.6897620226       15.5471545333       -5.9832317315  BUTA      2               0.0000000000
      2743       137  BUTA      H6             -2.7837267983       16.8224350748       -7.8394906368  BUTA      2               0.0000000000
      2744       137  BUTA      H7             -3.1291142698       15.1609781770       -8.2824213879  BUTA      2               0.0000000000
      2745       137  BUTA      H8             -1.6558669802       14.3203464033       -9.4090233439  BUTA      2               0.0000000000
      2746       137  BUTA      H9              0.7673227432       16.1607345320       -7.9276936215  BUTA      2               0.0000000000
      2747       137  BUTA      LPO11          -0.2736718551       16.4045344208       -7.2880077918  BUTA      2               0.0000000000
      2748       137  BUTA      LPO12           0.1934467919       16.1752246017       -7.6903733782  BUTA      2               0.0000000000
      2749       137  BUTA      LPO21          -1.1468643302       14.6142598314       -9.2098153316  BUTA      2               0.0000000000
      2750       137  BUTA      LPO22          -0.5030065773       14.7482152759       -9.2233807857  BUTA      2               0.0000000000
      2751       138  BUTA      C1             26.8299003436        7.2587404040       22.4759057202  BUTA      3               0.0000000000
      2752       138  BUTA      DC1            26.8122402205        7.2385762381       22.4848294854  BUTA      3               0.0000000000
      2753       138  BUTA      C2             26.8939491154        5.7427268940       22.6452631070  BUTA      3               0.0000000000
      2754       138  BUTA      DC2            26.8624835121        5.7237450975       22.5606427806  BUTA      3               0.0000000000
      2755       138  BUTA      C3             26.3703225992        5.2772628207       24.0205458157  BUTA      3               0.0000000000
      2756       138  BUTA      DC3            26.3686394156        5.2941616671       24.0118347669  BUTA      3               0.0000000000
      2757       138  BUTA      C4             27.0384705553        5.8533016288       25.2443114480  BUTA      3               0.0000000000
      2758       138  BUTA      DC4            27.0183256541        5.8558771205       25.2400257101  BUTA      3               0.0000000000
      2759       138  BUTA      O1             28.1888027393        5.3680945710       25.4961641284  BUTA      3               0.0000000000
      2760       138  BUTA      DO1            28.1603573896        5.3652594720       25.4924428469  BUTA      3               0.0000000000
      2761       138  BUTA      O2             26.2612627287        6.4994489878       26.0284281741  BUTA      3               0.0000000000
      2762       138  BUTA      DO2            26.2467220946        6.4915007890       26.0342848312  BUTA      3               0.0000000000
      2763       138  BUTA      H1             25.7874627346        7.6324327799       22.5653419477  BUTA      3               0.0000000000
      2764       138  BUTA      H2             27.4297522174        7.7593919141       23.2657454474  BUTA      3               0.0000000000
      2765       138  BUTA      H3             27.2375955794        7.5775824867       21.4928262112  BUTA      3               0.0000000000
      2766       138  BUTA      H4             27.9515982816        5.4151792695       22.5535472729  BUTA      3               0.0000000000
      2767       138  BUTA      H5             26.3175090868        5.2444818050       21.8366904605  BUTA      3               0.0000000000
      2768       138  BUTA      H6             26.4765798585        4.1713707002       24.0147999917  BUTA      3               0.0000000000
      2769       138  BUTA      H7             25.2760915898        5.4693851430       24.0122685694  BUTA      3               0.0000000000
      2770       138  BUTA      H8             25.3584609190        6.6133965907       25.6953728693  BUTA      3               0.0000000000
      2771       138  BUTA      H9             28.6279158424        5.7459243056       26.2729429736  BUTA      3               0.0000000000
      2772       138  BUTA      LPO11          28.2723038281        5.1273153117       25.2562622392  BUTA      3               0.0000000000
      2773       138  BUTA      LPO12          28.3215394102        5.5176653180       25.7834089157  BUTA      3               0.0000000000
      2774       138  BUTA      LPO21          25.9351902863        6.4985716169       25.9012432989  BUTA      3               0.0000000000
      2775       138  BUTA      LPO22          26.4418755366        6.6212571517       26.3023657306  BUTA      3               0.0000000000
      2776       139  BUTA      C1             23.5181972191      -18.8830125854       26.0971142839  BUTA      4               0.0000000000
      2777       139  BUTA      DC1            23.5328040611      -18.8887359727       26.0692968056  BUTA      4               0.0000000000
      2778       139  BUTA      C2             24.7724838005      -19.7343330824       26.2658756238  BUTA      4               0.0000000000
      2779       139  BUTA      DC2            24.8281024404      -19.6626737946       26.2222925337  BUTA      4               0.0000000000
      2780       139  BUTA      C3             24.5478406795      -21.2016154067       25.8512483870  BUTA      4               0.0000000000
      2781       139  BUTA      DC3            24.5408819962      -21.1683225471       25.8321873869  BUTA      4               0.0000000000
      2782       139  BUTA      C4             23.4294184753      -21.9107178029       26.5590236381  BUTA      4               0.0000000000
      2783       139  BUTA      DC4            23.4260471959      -21.8972107302       26.5109103907  BUTA      4               0.0000000000
      2784       139  BUTA      O1             23.6430923037      -22.1617718750       27.7820103355  BUTA      4               0.0000000000
      2785       139  BUTA      DO1            23.6436477430      -22.1508501857       27.7250734635  BUTA      4               0.0000000000
      2786       139  BUTA      O2             22.4646043772      -22.2877811141       25.8129821020  BUTA      4               0.0000000000
      2787       139  BUTA      DO2            22.4560024805      -22.2981302316       25.7960477165  BUTA      4               0.0000000000
      2788       139  BUTA      H1             23.1523430986      -18.8938496982       25.0481365341  BUTA      4               0.0000000000
      2789       139  BUTA      H2             22.7075040436      -19.2964842458       26.7344044562  BUTA      4               0.0000000000
      2790       139  BUTA      H3             23.6844397615      -17.8312924674       26.4142407721  BUTA      4               0.0000000000
      2791       139  BUTA      H4             25.0509210091      -19.7321128650       27.3414167855  BUTA      4               0.0000000000
      2792       139  BUTA      H5             25.6212916184      -19.2962599405       25.6984796321  BUTA      4               0.0000000000
      2793       139  BUTA      H6             25.5109695442      -21.7237342944       26.0358984802  BUTA      4               0.0000000000
      2794       139  BUTA      H7             24.4063022281      -21.2006162018       24.7493015332  BUTA      4               0.0000000000
      2795       139  BUTA      H8             22.5652308186      -22.0576488096       24.8771004632  BUTA      4               0.0000000000
      2796       139  BUTA      H9             22.9292096207      -22.6376143557       28.2324617185  BUTA      4               0.0000000000
      2797       139  BUTA      LPO11          23.9595537643      -22.0445202999       27.8747692277  BUTA      4               0.0000000000
      2798       139  BUTA      LPO12          23.3670183724      -22.3264764011       27.9204141055  BUTA      4               0.0000000000
      2799       139  BUTA      LPO21          22.5276724836      -22.1972464796       25.4808286827  BUTA      4               0.0000000000
      2800       139  BUTA      LPO22          22.2205898217      -22.4490322393       26.0052188605  BUTA      4               0.0000000000
      2801       140  BUTA      C1             16.0629789101       -9.1117755798       23.0172851578  BUTA      5               0.0000000000
      2802       140  BUTA      DC1            16.0874648636       -9.0975362894       22.9814144027  BUTA      5               0.0000000000
      2803       140  BUTA      C2             15.8428452632       -9.2868280981       24.5083421038  BUTA      5               0.0000000000
      2804       140  BUTA      DC2            15.8107516619       -9.2292016067       24.4591968970  BUTA      5               0.0000000000
      2805       140  BUTA      C3             17.1526921546       -9.5199988032       25.2979524408  BUTA      5               0.0000000000
      2806       140  BUTA      DC3            17.1588518917       -9.5428317546       25.2483525876  BUTA      5               0.0000000000
      2807       140  BUTA      C4             18.0483055888      -10.6637109678       24.8752799531  BUTA      5               0.0000000000
      2808       140  BUTA      DC4            18.1115999911      -10.6368596693       24.8518502177  BUTA      5               0.0000000000
      2809       140  BUTA      O1             17.5204802711      -11.8183479789       24.9609267617  BUTA      5               0.0000000000
      2810       140  BUTA      DO1            17.5303635378      -11.7762388195       24.9616756553  BUTA      5               0.0000000000
      2811       140  BUTA      O2             19.2359901044      -10.3615247205       24.4960392407  BUTA      5               0.0000000000
      2812       140  BUTA      DO2            19.3155249298      -10.3539741364       24.4809047673  BUTA      5               0.0000000000
      2813       140  BUTA      H1             16.6836476672       -8.2109992598       22.8231374917  BUTA      5               0.0000000000
      2814       140  BUTA      H2             16.5939759753       -9.9969409671       22.6063771966  BUTA      5               0.0000000000
      2815       140  BUTA      H3             15.0926811101       -9.0094389442       22.4858998058  BUTA      5               0.0000000000
      2816       140  BUTA      H4             15.1697098408      -10.1535433041       24.6815889067  BUTA      5               0.0000000000
      2817       140  BUTA      H5             15.3233755866       -8.3966896219       24.9232225084  BUTA      5               0.0000000000
      2818       140  BUTA      H6             16.8194534902       -9.6489671052       26.3499221030  BUTA      5               0.0000000000
      2819       140  BUTA      H7             17.6818928726       -8.5431498369       25.2921475254  BUTA      5               0.0000000000
      2820       140  BUTA      H8             19.4148821186       -9.4092649518       24.4833909159  BUTA      5               0.0000000000
      2821       140  BUTA      H9             18.1022347895      -12.5553955686       24.7215869805  BUTA      5               0.0000000000
      2822       140  BUTA      LPO11          17.1926735282      -11.7915393078       25.0806098202  BUTA      5               0.0000000000
      2823       140  BUTA      LPO12          17.7489753603      -12.0624044913       24.8573583643  BUTA      5               0.0000000000
      2824       140  BUTA      LPO21          19.2830151872      -10.0151817821       24.5143479985  BUTA      5               0.0000000000
      2825       140  BUTA      LPO22          19.4106166494      -10.6514721492       24.4069546833  BUTA      5               0.0000000000
      2826       141  BUTA      C1             23.9391096063       -8.2720776499      -24.4016428081  BUTA      6               0.0000000000
      2827       141  BUTA      DC1            23.9213824596       -8.2535076553      -24.3834386288  BUTA      6               0.0000000000
      2828       141  BUTA      C2             25.3298912585       -8.8472065085      -24.6016107964  BUTA      6               0.0000000000
      2829       141  BUTA      DC2            25.2965819692       -8.8109148438      -24.6847576066  BUTA      6               0.0000000000
      2830       141  BUTA      C3             25.6852997217       -9.9514468643      -23.5905996644  BUTA      6               0.0000000000
      2831       141  BUTA      DC3            25.6641102727       -9.9062534260      -23.5958886962  BUTA      6               0.0000000000
      2832       141  BUTA      C4             25.7537040292       -9.6134523875      -22.1553127372  BUTA      6               0.0000000000
      2833       141  BUTA      DC4            25.7584698929       -9.6024344684      -22.1663091503  BUTA      6               0.0000000000
      2834       141  BUTA      O1             26.5936210967       -8.7050670009      -21.8393585410  BUTA      6               0.0000000000
      2835       141  BUTA      DO1            26.5896294040       -8.7027756854      -21.8395100605  BUTA      6               0.0000000000
      2836       141  BUTA      O2             24.9720312132      -10.2726907731      -21.4006089026  BUTA      6               0.0000000000
      2837       141  BUTA      DO2            24.9786292607      -10.2583506694      -21.4095889895  BUTA      6               0.0000000000
      2838       141  BUTA      H1             23.1789030649       -9.0808665854      -24.4492607973  BUTA      6               0.0000000000
      2839       141  BUTA      H2             23.8800953270       -7.7952257795      -23.3999189896  BUTA      6               0.0000000000
      2840       141  BUTA      H3             23.6997523693       -7.5184568134      -25.1820816269  BUTA      6               0.0000000000
      2841       141  BUTA      H4             26.0946971481       -8.0452219725      -24.5227834195  BUTA      6               0.0000000000
      2842       141  BUTA      H5             25.3859884121       -9.2812470367      -25.6227782313  BUTA      6               0.0000000000
      2843       141  BUTA      H6             26.7040893470      -10.2967528137      -23.8683630561  BUTA      6               0.0000000000
      2844       141  BUTA      H7             25.0186554803      -10.8116655641      -23.8140504283  BUTA      6               0.0000000000
      2845       141  BUTA      H8             24.3983892702      -10.8959441918      -21.8711948110  BUTA      6               0.0000000000
      2846       141  BUTA      H9             26.6321806480       -8.5124586972      -20.8904769877  BUTA      6               0.0000000000
      2847       141  BUTA      LPO11          26.7596538286       -8.5907923747      -22.1254956441  BUTA      6               0.0000000000
      2848       141  BUTA      LPO12          26.5850708125       -8.6490215330      -21.4939807795  BUTA      6               0.0000000000
      2849       141  BUTA      LPO21          24.7851417398      -10.4994877913      -21.5907021356  BUTA      6               0.0000000000
      2850       141  BUTA      LPO22          25.0116678982      -10.1700821473      -21.0683433414  BUTA      6               0.0000000000
      2851       142  BUTA      C1              2.2789872826       21.2768828085        8.0744349855  BUTA      7               0.0000000000
      2852       142  BUTA      DC1             2.2742023725       21.2963774758        8.0906141934  BUTA      7               0.0000000000
      2853       142  BUTA      C2              2.4264106238       19.9931255475        7.2659112445  BUTA      7               0.0000000000
      2854       142  BUTA      DC2             2.3209109240       19.9950935231        7.2866491858  BUTA      7               0.0000000000
      2855       142  BUTA      C3              3.8357704512       19.3848796663        7.3885565912  BUTA      7               0.0000000000
      2856       142  BUTA      DC3             3.8052172755       19.4514190324        7.3930434764  BUTA      7               0.0000000000
      2857       142  BUTA      C4              4.9590194878       20.2775885738        6.9832597518  BUTA      7               0.0000000000
      2858       142  BUTA      DC4             4.9691203885       20.2867015745        7.0116880775  BUTA      7               0.0000000000
      2859       142  BUTA      O1              5.0009025560       20.5853456542        5.7484660474  BUTA      7               0.0000000000
      2860       142  BUTA      DO1             4.9986854344       20.5769617418        5.7737666529  BUTA      7               0.0000000000
      2861       142  BUTA      O2              5.7060972944       20.7158752618        7.9220948800  BUTA      7               0.0000000000
      2862       142  BUTA      DO2             5.7378644053       20.7229057408        7.9257373225  BUTA      7               0.0000000000
      2863       142  BUTA      H1              2.4476879880       21.0731420239        9.1534858493  BUTA      7               0.0000000000
      2864       142  BUTA      H2              3.0497392399       22.0080459355        7.7493766833  BUTA      7               0.0000000000
      2865       142  BUTA      H3              1.2760705469       21.7372112225        7.9456841719  BUTA      7               0.0000000000
      2866       142  BUTA      H4              2.2446912331       20.2092734791        6.1913978036  BUTA      7               0.0000000000
      2867       142  BUTA      H5              1.6742501922       19.2441548894        7.5939640433  BUTA      7               0.0000000000
      2868       142  BUTA      H6              3.8396920029       18.4466334504        6.7935778855  BUTA      7               0.0000000000
      2869       142  BUTA      H7              3.9373231761       19.0511935655        8.4433843640  BUTA      7               0.0000000000
      2870       142  BUTA      H8              5.4844154737       20.3725779162        8.8007103265  BUTA      7               0.0000000000
      2871       142  BUTA      H9              5.7497655249       21.1479147579        5.5001089308  BUTA      7               0.0000000000
      2872       142  BUTA      LPO11           4.7351305165       20.4339966053        5.5782935219  BUTA      7               0.0000000000
      2873       142  BUTA      LPO12           5.2745499849       20.7945631212        5.6864568857  BUTA      7               0.0000000000
      2874       142  BUTA      LPO21           5.5951514522       20.5931704644        8.2305337763  BUTA      7               0.0000000000
      2875       142  BUTA      LPO22           5.9570677784       20.9207280443        7.7896216612  BUTA      7               0.0000000000
      2876       143  BUTA      C1            -28.1822587441      -10.2985274789      -18.5697679268  BUTA      8               0.0000000000
      2877       143  BUTA      DC1           -28.1683524554      -10.3128456186      -18.5484050905  BUTA      8               0.0000000000
      2878       143  BUTA      C2            -26.8290102810      -10.9495625898      -18.2852474696  BUTA      8               0.0000000000
      2879       143  BUTA      DC2           -26.7921722101      -10.8729725883      -18.2506879182  BUTA      8               0.0000000000
      2880       143  BUTA      C3            -26.5641796659      -12.1867872399      -19.1689003698  BUTA      8               0.0000000000
      2881       143  BUTA      DC3           -26.5922909313      -12.1804034916      -19.1362082600  BUTA      8               0.0000000000
      2882       143  BUTA      C4            -27.4803735347      -13.3615901691      -18.9536114881  BUTA      8               0.0000000000
      2883       143  BUTA      DC4           -27.4421501197      -13.3879809655      -18.8521530268  BUTA      8               0.0000000000
      2884       143  BUTA      O1            -27.2685551508      -14.0372465264      -17.8833284861  BUTA      8               0.0000000000
      2885       143  BUTA      DO1           -27.2449518645      -14.0985056171      -17.8174788564  BUTA      8               0.0000000000
      2886       143  BUTA      O2            -28.2424831030      -13.6436956526      -19.9227415138  BUTA      8               0.0000000000
      2887       143  BUTA      DO2           -28.1861113697      -13.6184769063      -19.8659324138  BUTA      8               0.0000000000
      2888       143  BUTA      H1            -28.2378642084       -9.9473997035      -19.6223544158  BUTA      8               0.0000000000
      2889       143  BUTA      H2            -29.0064231243      -11.0308372079      -18.4326674677  BUTA      8               0.0000000000
      2890       143  BUTA      H3            -28.3710856507       -9.4251521314      -17.9095551551  BUTA      8               0.0000000000
      2891       143  BUTA      H4            -26.7803291715      -11.2664896095      -17.2215236265  BUTA      8               0.0000000000
      2892       143  BUTA      H5            -26.0231030303      -10.2071906163      -18.4688730572  BUTA      8               0.0000000000
      2893       143  BUTA      H6            -25.5051128206      -12.4769487987      -19.0000670587  BUTA      8               0.0000000000
      2894       143  BUTA      H7            -26.5847489836      -11.8179141324      -20.2166744553  BUTA      8               0.0000000000
      2895       143  BUTA      H8            -28.1426749554      -13.0636426530      -20.6925063164  BUTA      8               0.0000000000
      2896       143  BUTA      H9            -27.9065826931      -14.7553504844      -17.7560156397  BUTA      8               0.0000000000
      2897       143  BUTA      LPO11         -27.0012706950      -13.8984114356      -17.7050482649  BUTA      8               0.0000000000
      2898       143  BUTA      LPO12         -27.4963228003      -14.3021319669      -17.8619368694  BUTA      8               0.0000000000
      2899       143  BUTA      LPO21         -28.1874709079      -13.4209643140      -20.1870602782  BUTA      8               0.0000000000
      2900       143  BUTA      LPO22         -28.4417601127      -13.9198286239      -19.8418758504  BUTA      8               0.0000000000
      2901       144  BUTA      C1             -0.1114208583      -24.0551093998       15.9566660595  BUTA      9               0.0000000000
      2902       144  BUTA      DC1            -0.0987220375      -24.0505293434       15.9516976765  BUTA      9               0.0000000000
      2903       144  BUTA      C2             -0.8649476527      -25.3310632728       15.5997021646  BUTA      9               0.0000000000
      2904       144  BUTA      DC2            -0.9340809535      -25.2806396188       15.6263219957  BUTA      9               0.0000000000
      2905       144  BUTA      C3              0.0256906140      -26.5835211425       15.7415366212  BUTA      9               0.0000000000
      2906       144  BUTA      DC3             0.0400543169      -26.5366529908       15.7179105007  BUTA      9               0.0000000000
      2907       144  BUTA      C4              1.2704885346      -26.6110899006       14.8919155675  BUTA      9               0.0000000000
      2908       144  BUTA      DC4             1.2628063439      -26.6078809765       14.8678035117  BUTA      9               0.0000000000
      2909       144  BUTA      O1              1.0849667527      -26.6596419348       13.6274642699  BUTA      9               0.0000000000
      2910       144  BUTA      DO1             1.0908609772      -26.6610974945       13.6094980509  BUTA      9               0.0000000000
      2911       144  BUTA      O2              2.3870859728      -26.5521286238       15.5067693439  BUTA      9               0.0000000000
      2912       144  BUTA      DO2             2.3753984249      -26.5524694001       15.4965401358  BUTA      9               0.0000000000
      2913       144  BUTA      H1              0.1863363594      -24.0549037202       17.0270218873  BUTA      9               0.0000000000
      2914       144  BUTA      H2              0.8209579147      -23.9975775857       15.3552669292  BUTA      9               0.0000000000
      2915       144  BUTA      H3             -0.7190419340      -23.1450437246       15.7645772895  BUTA      9               0.0000000000
      2916       144  BUTA      H4             -1.2175073045      -25.2753116691       14.5476021448  BUTA      9               0.0000000000
      2917       144  BUTA      H5             -1.7570632523      -25.4404172154       16.2527660759  BUTA      9               0.0000000000
      2918       144  BUTA      H6             -0.6292031553      -27.4559966341       15.5312471345  BUTA      9               0.0000000000
      2919       144  BUTA      H7              0.2526661661      -26.6647527362       16.8260662551  BUTA      9               0.0000000000
      2920       144  BUTA      H8              2.3081895448      -26.5304635892       16.4723090789  BUTA      9               0.0000000000
      2921       144  BUTA      H9              1.9007529430      -26.7085639990       13.1068295386  BUTA      9               0.0000000000
      2922       144  BUTA      LPO11           0.7421904658      -26.6635810049       13.5568321178  BUTA      9               0.0000000000
      2923       144  BUTA      LPO12           1.3930130708      -26.6647918816       13.4613891545  BUTA      9               0.0000000000
      2924       144  BUTA      LPO21           2.3327603924      -26.5321992720       15.8519527042  BUTA      9               0.0000000000
      2925       144  BUTA      LPO22           2.6509084599      -26.5609956136       15.2769453422  BUTA      9               0.0000000000
      2926       145  BUTA      C1             -1.3360226968        4.8597021951        1.5898506121  BUTA      10              0.0000000000
      2927       145  BUTA      DC1            -1.3196459643        4.8437072489        1.5647989327  BUTA      10              0.0000000000
      2928       145  BUTA      C2              0.1235872865        4.6552598482        1.1943618776  BUTA      10              0.0000000000
      2929       145  BUTA      DC2             0.1481113942        4.6139266460        1.2638086976  BUTA      10              0.0000000000
      2930       145  BUTA      C3              0.5647813836        5.6279295250        0.0910124856  BUTA      10              0.0000000000
      2931       145  BUTA      DC3             0.5327561033        5.5901271117        0.0736557863  BUTA      10              0.0000000000
      2932       145  BUTA      C4             -0.1448290452        5.4666621844       -1.2069048057  BUTA      10              0.0000000000
      2933       145  BUTA      DC4            -0.1062502364        5.3709986702       -1.2414006419  BUTA      10              0.0000000000
      2934       145  BUTA      O1              0.1402152632        4.3952744205       -1.8354452375  BUTA      10              0.0000000000
      2935       145  BUTA      DO1             0.1763788696        4.3428587855       -1.8852139960  BUTA      10              0.0000000000
      2936       145  BUTA      O2             -0.7196188610        6.4926477543       -1.6655430034  BUTA      10              0.0000000000
      2937       145  BUTA      DO2            -0.6667337350        6.4363383849       -1.6376026398  BUTA      10              0.0000000000
      2938       145  BUTA      H1             -1.4974688347        5.8944436926        1.9607497579  BUTA      10              0.0000000000
      2939       145  BUTA      H2             -2.0088720510        4.7194919661        0.7169612496  BUTA      10              0.0000000000
      2940       145  BUTA      H3             -1.6459067241        4.1604271693        2.3956466958  BUTA      10              0.0000000000
      2941       145  BUTA      H4              0.2731520194        3.6140256629        0.8368947277  BUTA      10              0.0000000000
      2942       145  BUTA      H5              0.7748862234        4.8179261172        2.0796134688  BUTA      10              0.0000000000
      2943       145  BUTA      H6              1.6601879641        5.4896171604       -0.0325800496  BUTA      10              0.0000000000
      2944       145  BUTA      H7              0.4619845764        6.6507537908        0.5124200526  BUTA      10              0.0000000000
      2945       145  BUTA      H8             -0.7342857908        7.2483246612       -1.0591616930  BUTA      10              0.0000000000
      2946       145  BUTA      H9             -0.3337378177        4.2943468512       -2.6745775887  BUTA      10              0.0000000000
      2947       145  BUTA      LPO11           0.3728675399        4.2078258063       -1.6531379826  BUTA      10              0.0000000000
      2948       145  BUTA      LPO12          -0.0388888795        4.3814532188       -2.1358294589  BUTA      10              0.0000000000
      2949       145  BUTA      LPO21          -0.6735146876        6.7629738518       -1.4480614957  BUTA      10              0.0000000000
      2950       145  BUTA      LPO22          -0.8747413037        6.4169165645       -1.9700127304  BUTA      10              0.0000000000
      2951       146  BUTA      C1             -4.2375806938        1.1874897809       20.8701339052  BUTA      11              0.0000000000
      2952       146  BUTA      DC1            -4.2056571982        1.1979899110       20.8870812540  BUTA      11              0.0000000000
      2953       146  BUTA      C2             -5.5244749489        0.4034066032       20.6375788745  BUTA      11              0.0000000000
      2954       146  BUTA      DC2            -5.4734010874        0.3594756699       20.7383632123  BUTA      11              0.0000000000
      2955       146  BUTA      C3             -5.8529528012        0.2282887489       19.1463046204  BUTA      11              0.0000000000
      2956       146  BUTA      DC3            -5.8231244185        0.2520723063       19.1948549021  BUTA      11              0.0000000000
      2957       146  BUTA      C4             -6.0936333847        1.5133638939       18.4332670081  BUTA      11              0.0000000000
      2958       146  BUTA      DC4            -6.0510687104        1.4854771962       18.4262068242  BUTA      11              0.0000000000
      2959       146  BUTA      O1             -7.0331299772        2.2175392682       18.9062115540  BUTA      11              0.0000000000
      2960       146  BUTA      DO1            -6.9885855851        2.1810462689       18.8947654373  BUTA      11              0.0000000000
      2961       146  BUTA      O2             -5.2052241039        1.8395109724       17.5836827293  BUTA      11              0.0000000000
      2962       146  BUTA      DO2            -5.1953431090        1.8483297304       17.5690502572  BUTA      11              0.0000000000
      2963       146  BUTA      H1             -3.3757193819        0.6673741859       20.4000319492  BUTA      11              0.0000000000
      2964       146  BUTA      H2             -4.3224398241        2.1802786382       20.3787173674  BUTA      11              0.0000000000
      2965       146  BUTA      H3             -4.0374098484        1.3337950962       21.9531146933  BUTA      11              0.0000000000
      2966       146  BUTA      H4             -6.3804852097        0.9264685521       21.1150447181  BUTA      11              0.0000000000
      2967       146  BUTA      H5             -5.4428440246       -0.6025035852       21.1021239047  BUTA      11              0.0000000000
      2968       146  BUTA      H6             -6.7439291514       -0.4320845336       19.0800530420  BUTA      11              0.0000000000
      2969       146  BUTA      H7             -5.0239855667       -0.3657316872       18.7055393250  BUTA      11              0.0000000000
      2970       146  BUTA      H8             -4.5088713294        1.1776073539       17.4574392609  BUTA      11              0.0000000000
      2971       146  BUTA      H9             -7.1872325584        3.0513974563       18.4372830769  BUTA      11              0.0000000000
      2972       146  BUTA      LPO11          -7.1767157489        2.0561794746       19.1816133390  BUTA      11              0.0000000000
      2973       146  BUTA      LPO12          -7.0672442235        2.5120895147       18.7202643289  BUTA      11              0.0000000000
      2974       146  BUTA      LPO21          -4.9539027977        1.5961161233       17.5738568210  BUTA      11              0.0000000000
      2975       146  BUTA      LPO22          -5.2893019272        2.1443031690       17.4335739803  BUTA      11              0.0000000000
      2976       147  BUTA      C1             18.9752455625       20.4159965581      -25.4193708980  BUTA      12              0.0000000000
      2977       147  BUTA      DC1            18.9051018746       20.4004261032      -25.4213704985  BUTA      12              0.0000000000
      2978       147  BUTA      C2             20.4072948342       20.6706153040      -25.8723592247  BUTA      12              0.0000000000
      2979       147  BUTA      DC2            20.3121838036       20.7432407337      -25.9441220202  BUTA      12              0.0000000000
      2980       147  BUTA      C3             21.3466929848       19.4748763094      -25.6581259306  BUTA      12              0.0000000000
      2981       147  BUTA      DC3            21.2510350822       19.5407094464      -25.6288169573  BUTA      12              0.0000000000
      2982       147  BUTA      C4             21.4569002460       19.0092853099      -24.2309046434  BUTA      12              0.0000000000
      2983       147  BUTA      DC4            21.4268976812       19.0157293095      -24.2273241289  BUTA      12              0.0000000000
      2984       147  BUTA      O1             21.9085290124       19.8927450881      -23.4251656390  BUTA      12              0.0000000000
      2985       147  BUTA      DO1            21.9041997702       19.8900971435      -23.4349828119  BUTA      12              0.0000000000
      2986       147  BUTA      O2             20.6858442766       18.0341729176      -23.9376023228  BUTA      12              0.0000000000
      2987       147  BUTA      DO2            20.6547982154       18.0322451576      -23.9322822720  BUTA      12              0.0000000000
      2988       147  BUTA      H1             18.5362113444       19.5687771332      -25.9883956785  BUTA      12              0.0000000000
      2989       147  BUTA      H2             19.0005711877       20.1310577110      -24.3458302758  BUTA      12              0.0000000000
      2990       147  BUTA      H3             18.3422139411       21.3223346573      -25.5295671504  BUTA      12              0.0000000000
      2991       147  BUTA      H4             20.8207273024       21.5185710271      -25.2855324310  BUTA      12              0.0000000000
      2992       147  BUTA      H5             20.4331765152       20.9560750172      -26.9457481995  BUTA      12              0.0000000000
      2993       147  BUTA      H6             22.3422125720       19.7588043638      -26.0614206274  BUTA      12              0.0000000000
      2994       147  BUTA      H7             21.0100724666       18.6618592290      -26.3363669303  BUTA      12              0.0000000000
      2995       147  BUTA      H8             20.3153707513       17.5770071771      -24.7074788407  BUTA      12              0.0000000000
      2996       147  BUTA      H9             21.9846203998       19.5921817167      -22.5071064032  BUTA      12              0.0000000000
      2997       147  BUTA      LPO11          21.9766349236       20.1891302666      -23.5984209731  BUTA      12              0.0000000000
      2998       147  BUTA      LPO12          21.9250185798       19.7618425100      -23.1009857364  BUTA      12              0.0000000000
      2999       147  BUTA      LPO21          20.4980219301       17.9415405136      -24.2180341397  BUTA      12              0.0000000000
      3000       147  BUTA      LPO22          20.7291373891       17.9440270893      -23.6021929668  BUTA      12              0.0000000000
      3001       148  BUTA      C1             16.4895413095       18.3902966511       -0.5280596617  BUTA      13              0.0000000000
      3002       148  BUTA      DC1            16.4753605538       18.3572969815       -0.5460819450  BUTA      13              0.0000000000
      3003       148  BUTA      C2             17.9673514162       18.2908741425       -0.8851400486  BUTA      13              0.0000000000
      3004       148  BUTA      DC2            17.9165569712       18.2034945266       -0.9617790080  BUTA      13              0.0000000000
      3005       148  BUTA      C3             18.9377472166       18.4712776700        0.2860537142  BUTA      13              0.0000000000
      3006       148  BUTA      DC3            18.8854497699       18.4741393404        0.2537623064  BUTA      13              0.0000000000
      3007       148  BUTA      C4             18.8935044365       19.8124152857        0.9550158526  BUTA      13              0.0000000000
      3008       148  BUTA      DC4            18.8852541371       19.7899892254        0.9442220041  BUTA      13              0.0000000000
      3009       148  BUTA      O1             19.1878879843       20.8022772313        0.2073270486  BUTA      13              0.0000000000
      3010       148  BUTA      DO1            19.1868663606       20.7860598489        0.2094888123  BUTA      13              0.0000000000
      3011       148  BUTA      O2             18.5280292074       19.8183309991        2.1751775249  BUTA      13              0.0000000000
      3012       148  BUTA      DO2            18.5265682916       19.8337936144        2.1711891663  BUTA      13              0.0000000000
      3013       148  BUTA      H1             16.1823951325       17.5897287851        0.1783915527  BUTA      13              0.0000000000
      3014       148  BUTA      H2             16.3188696615       19.3578585118       -0.0093919122  BUTA      13              0.0000000000
      3015       148  BUTA      H3             15.8332932271       18.3742393126       -1.4243863975  BUTA      13              0.0000000000
      3016       148  BUTA      H4             18.2296404789       19.1762678520       -1.5028806307  BUTA      13              0.0000000000
      3017       148  BUTA      H5             18.1955389171       17.3737116689       -1.4691472939  BUTA      13              0.0000000000
      3018       148  BUTA      H6             19.9481023302       18.3076603313       -0.1460723220  BUTA      13              0.0000000000
      3019       148  BUTA      H7             18.7660329469       17.6271894360        0.9877304651  BUTA      13              0.0000000000
      3020       148  BUTA      H8             18.3488135638       18.9360530002        2.5335464491  BUTA      13              0.0000000000
      3021       148  BUTA      H9             19.1632576635       21.6593647122        0.6587197794  BUTA      13              0.0000000000
      3022       148  BUTA      LPO11          19.2620109069       20.6902842148       -0.1158808668  BUTA      13              0.0000000000
      3023       148  BUTA      LPO12          19.1690448258       21.1001479410        0.3901328901  BUTA      13              0.0000000000
      3024       148  BUTA      LPO21          18.4582473593       19.4920335920        2.2808207727  BUTA      13              0.0000000000
      3025       148  BUTA      LPO22          18.5291155249       20.1457403367        2.2988785578  BUTA      13              0.0000000000
      3026       149  BUTA      C1            -21.5769079814        2.5911025049      -14.4043162084  BUTA      14              0.0000000000
      3027       149  BUTA      DC1           -21.5870073553        2.5726106052      -14.4146372577  BUTA      14              0.0000000000
      3028       149  BUTA      C2            -20.5740674638        2.4229283827      -13.2639462204  BUTA      14              0.0000000000
      3029       149  BUTA      DC2           -20.6180089218        2.3156464825      -13.2761631282  BUTA      14              0.0000000000
      3030       149  BUTA      C3            -20.3799840723        3.7124422080      -12.4520844752  BUTA      14              0.0000000000
      3031       149  BUTA      DC3           -20.3922502914        3.6641634420      -12.4988461778  BUTA      14              0.0000000000
      3032       149  BUTA      C4            -19.8182091519        4.8778946272      -13.1984425916  BUTA      14              0.0000000000
      3033       149  BUTA      DC4           -19.7662765068        4.8138657223      -13.2002733353  BUTA      14              0.0000000000
      3034       149  BUTA      O1            -18.6293985340        4.6878544496      -13.6260971573  BUTA      14              0.0000000000
      3035       149  BUTA      DO1           -18.5915126126        4.6597739022      -13.6478703345  BUTA      14              0.0000000000
      3036       149  BUTA      O2            -20.6408047077        5.8027589835      -13.4530826517  BUTA      14              0.0000000000
      3037       149  BUTA      DO2           -20.6074439716        5.7340930465      -13.4320480128  BUTA      14              0.0000000000
      3038       149  BUTA      H1            -22.5755431885        2.8841421147      -14.0155019718  BUTA      14              0.0000000000
      3039       149  BUTA      H2            -21.2456578909        3.4186791286      -15.0674235225  BUTA      14              0.0000000000
      3040       149  BUTA      H3            -21.6751759137        1.6659135699      -15.0115145681  BUTA      14              0.0000000000
      3041       149  BUTA      H4            -19.5839901706        2.1379866237      -13.6797299978  BUTA      14              0.0000000000
      3042       149  BUTA      H5            -20.8928378475        1.6116359362      -12.5750986248  BUTA      14              0.0000000000
      3043       149  BUTA      H6            -19.7238872683        3.4611073252      -11.5914517071  BUTA      14              0.0000000000
      3044       149  BUTA      H7            -21.3723846896        3.9426676809      -12.0088483682  BUTA      14              0.0000000000
      3045       149  BUTA      H8            -21.5089621458        5.6948494901      -13.0364062737  BUTA      14              0.0000000000
      3046       149  BUTA      H9            -18.2838263668        5.4212220915      -14.1568633761  BUTA      14              0.0000000000
      3047       149  BUTA      LPO11         -18.5190249022        4.3684601452      -13.5349657154  BUTA      14              0.0000000000
      3048       149  BUTA      LPO12         -18.5169974914        4.9716365732      -13.7973680303  BUTA      14              0.0000000000
      3049       149  BUTA      LPO21         -20.9566029077        5.7202231786      -13.3267523790  BUTA      14              0.0000000000
      3050       149  BUTA      LPO22         -20.4808540892        6.0605180461      -13.6276566053  BUTA      14              0.0000000000
      3051       150  BUTA      C1            -22.8486885278       -8.6587409533       -5.8946481690  BUTA      15              0.0000000000
      3052       150  BUTA      DC1           -22.8697563976       -8.6882112773       -5.9120466718  BUTA      15              0.0000000000
      3053       150  BUTA      C2            -24.0041235638       -9.6537965805       -5.8285507612  BUTA      15              0.0000000000
      3054       150  BUTA      DC2           -23.9432469228       -9.7531909839       -5.8516489574  BUTA      15              0.0000000000
      3055       150  BUTA      C3            -25.2912990769       -9.0421890079       -6.3984072290  BUTA      15              0.0000000000
      3056       150  BUTA      DC3           -25.2519571155       -9.0562604531       -6.4131980652  BUTA      15              0.0000000000
      3057       150  BUTA      C4            -25.7904793828       -7.7726722198       -5.8070847795  BUTA      15              0.0000000000
      3058       150  BUTA      DC4           -25.7725171859       -7.8042311645       -5.8322337834  BUTA      15              0.0000000000
      3059       150  BUTA      O1            -26.2008018552       -7.8753749652       -4.6114997935  BUTA      15              0.0000000000
      3060       150  BUTA      DO1           -26.1893576351       -7.8820794956       -4.6501834880  BUTA      15              0.0000000000
      3061       150  BUTA      O2            -25.8901375567       -6.8082883383       -6.6348183424  BUTA      15              0.0000000000
      3062       150  BUTA      DO2           -25.8912199671       -6.8360822967       -6.6403803937  BUTA      15              0.0000000000
      3063       150  BUTA      H1            -22.6414337243       -8.3348502932       -6.9369827066  BUTA      15              0.0000000000
      3064       150  BUTA      H2            -23.1124469563       -7.7401807297       -5.3280798953  BUTA      15              0.0000000000
      3065       150  BUTA      H3            -21.9132709011       -9.0704580720       -5.4589833003  BUTA      15              0.0000000000
      3066       150  BUTA      H4            -24.1988864967       -9.9222406658       -4.7682082811  BUTA      15              0.0000000000
      3067       150  BUTA      H5            -23.7543911593      -10.5764551628       -6.3948155991  BUTA      15              0.0000000000
      3068       150  BUTA      H6            -26.0804456175       -9.8237381424       -6.3710268012  BUTA      15              0.0000000000
      3069       150  BUTA      H7            -25.0407953414       -8.8856480448       -7.4694178760  BUTA      15              0.0000000000
      3070       150  BUTA      H8            -25.5414602423       -6.9916221860       -7.5201283619  BUTA      15              0.0000000000
      3071       150  BUTA      H9            -26.5571386144       -7.0584796167       -4.2311485038  BUTA      15              0.0000000000
      3072       150  BUTA      LPO11         -26.1666555430       -8.2057757688       -4.5011850693  BUTA      15              0.0000000000
      3073       150  BUTA      LPO12         -26.3124098019       -7.5643626258       -4.4961091919  BUTA      15              0.0000000000
      3074       150  BUTA      LPO21         -25.7898821546       -6.9130905256       -6.9533546133  BUTA      15              0.0000000000
      3075       150  BUTA      LPO22         -26.0091093085       -6.5223695874       -6.4717349584  BUTA      15              0.0000000000
      3076       151  BUTA      C1            -29.0675430411      -17.9179785192      -25.7406836563  BUTA      16              0.0000000000
      3077       151  BUTA      DC1           -29.0694669466      -17.9311741285      -25.7502392748  BUTA      16              0.0000000000
      3078       151  BUTA      C2            -27.5653823951      -17.8390561622      -25.8578521725  BUTA      16              0.0000000000
      3079       151  BUTA      DC2           -27.5795838610      -17.7527448291      -25.8884710850  BUTA      16              0.0000000000
      3080       151  BUTA      C3            -27.0093828017      -19.1557172482      -26.4131460475  BUTA      16              0.0000000000
      3081       151  BUTA      DC3           -27.0383132019      -19.1458657842      -26.3941195505  BUTA      16              0.0000000000
      3082       151  BUTA      C4            -27.3330878400      -20.3829941855      -25.6058595217  BUTA      16              0.0000000000
      3083       151  BUTA      DC4           -27.3309868506      -20.3761936750      -25.6058224056  BUTA      16              0.0000000000
      3084       151  BUTA      O1            -26.8307216135      -20.4226762127      -24.4337934392  BUTA      16              0.0000000000
      3085       151  BUTA      DO1           -26.8277897742      -20.4240866467      -24.4420855604  BUTA      16              0.0000000000
      3086       151  BUTA      O2            -28.0181925360      -21.2776237418      -26.2049211806  BUTA      16              0.0000000000
      3087       151  BUTA      DO2           -28.0123928280      -21.2720693360      -26.2069486393  BUTA      16              0.0000000000
      3088       151  BUTA      H1            -29.5414097775      -18.1638684659      -26.7150087821  BUTA      16              0.0000000000
      3089       151  BUTA      H2            -29.3144088282      -18.7343286554      -25.0286789244  BUTA      16              0.0000000000
      3090       151  BUTA      H3            -29.4933582645      -16.9579166090      -25.3783529710  BUTA      16              0.0000000000
      3091       151  BUTA      H4            -27.1334802722      -17.6875011665      -24.8455218709  BUTA      16              0.0000000000
      3092       151  BUTA      H5            -27.2734548266      -16.9739208659      -26.4908136361  BUTA      16              0.0000000000
      3093       151  BUTA      H6            -25.9120890074      -19.0102167969      -26.5085239716  BUTA      16              0.0000000000
      3094       151  BUTA      H7            -27.3859900780      -19.2226190042      -27.4562242395  BUTA      16              0.0000000000
      3095       151  BUTA      H8            -28.2526571355      -21.0542261443      -27.1182014586  BUTA      16              0.0000000000
      3096       151  BUTA      H9            -27.0319756516      -21.2305908512      -23.9380800654  BUTA      16              0.0000000000
      3097       151  BUTA      LPO11         -26.6427076054      -20.1335227663      -24.3742869921  BUTA      16              0.0000000000
      3098       151  BUTA      LPO12         -26.9244631428      -20.7192762644      -24.2733536218  BUTA      16              0.0000000000
      3099       151  BUTA      LPO21         -28.0892634321      -21.1750028835      -26.5319041881  BUTA      16              0.0000000000
      3100       151  BUTA      LPO22         -28.0756499328      -21.5480805677      -25.9903244592  BUTA      16              0.0000000000
      3101       152  BUTA      C1            -16.2613109106      -10.1613493586       -8.9513591019  BUTA      17              0.0000000000
      3102       152  BUTA      DC1           -16.2483745061      -10.1895356672       -8.9401243369  BUTA      17              0.0000000000
      3103       152  BUTA      C2            -15.0510456288      -10.6622126160       -9.7185611411  BUTA      17              0.0000000000
      3104       152  BUTA      DC2           -15.0834325371      -10.7182841013       -9.7487757570  BUTA      17              0.0000000000
      3105       152  BUTA      C3            -13.8171232024      -10.7033007243       -8.8086547882  BUTA      17              0.0000000000
      3106       152  BUTA      DC3           -13.8240640843      -10.6753022919       -8.7929032209  BUTA      17              0.0000000000
      3107       152  BUTA      C4            -13.4042248809       -9.4163122963       -8.1514901626  BUTA      17              0.0000000000
      3108       152  BUTA      DC4           -13.4009329598       -9.4426334320       -8.0648853952  BUTA      17              0.0000000000
      3109       152  BUTA      O1            -12.9729018857       -8.5164256915       -8.9347235768  BUTA      17              0.0000000000
      3110       152  BUTA      DO1           -12.9865796231       -8.5689281022       -8.8945869102  BUTA      17              0.0000000000
      3111       152  BUTA      O2            -13.2407915663       -9.4521980953       -6.8878111804  BUTA      17              0.0000000000
      3112       152  BUTA      DO2           -13.1573042578       -9.4066596745       -6.8279376312  BUTA      17              0.0000000000
      3113       152  BUTA      H1            -16.5665473859      -10.8819106892       -8.1627254323  BUTA      17              0.0000000000
      3114       152  BUTA      H2            -16.0311300724       -9.2013948205       -8.4416287154  BUTA      17              0.0000000000
      3115       152  BUTA      H3            -17.1127547161       -9.9780894143       -9.6411273521  BUTA      17              0.0000000000
      3116       152  BUTA      H4            -14.8385951463       -9.9742825030      -10.5646923086  BUTA      17              0.0000000000
      3117       152  BUTA      H5            -15.2538191805      -11.6662332078      -10.1488477175  BUTA      17              0.0000000000
      3118       152  BUTA      H6            -13.0013050726      -11.0794325439       -9.4623264440  BUTA      17              0.0000000000
      3119       152  BUTA      H7            -14.0097813182      -11.5133543320       -8.0731162079  BUTA      17              0.0000000000
      3120       152  BUTA      H8            -13.5340968066      -10.2744910067       -6.4673740222  BUTA      17              0.0000000000
      3121       152  BUTA      H9            -12.6924858533       -7.6982149208       -8.4978494720  BUTA      17              0.0000000000
      3122       152  BUTA      LPO11         -12.9789353760       -8.6322109532       -9.2649619304  BUTA      17              0.0000000000
      3123       152  BUTA      LPO12         -12.8854663759       -8.2308081051       -8.7523020157  BUTA      17              0.0000000000
      3124       152  BUTA      LPO21         -13.3053902775       -9.7745933739       -6.7678599784  BUTA      17              0.0000000000
      3125       152  BUTA      LPO22         -13.1454970314       -9.1365428389       -6.7704199085  BUTA      17              0.0000000000
      3126       153  BUTA      C1             20.7169976430      -12.7710235495      -12.6382864412  BUTA      18              0.0000000000
      3127       153  BUTA      DC1            20.7399607190      -12.7124258476      -12.6045234243  BUTA      18              0.0000000000
      3128       153  BUTA      C2             20.4328307407      -14.1628123600      -13.1681592440  BUTA      18              0.0000000000
      3129       153  BUTA      DC2            20.5427105811      -14.1014725484      -13.1805584569  BUTA      18              0.0000000000
      3130       153  BUTA      C3             18.9661514861      -14.3921403394      -13.5920486962  BUTA      18              0.0000000000
      3131       153  BUTA      DC3            19.0084213826      -14.3445016757      -13.5369033762  BUTA      18              0.0000000000
      3132       153  BUTA      C4             17.8818880115      -14.2598057401      -12.5602743720  BUTA      18              0.0000000000
      3133       153  BUTA      DC4            17.8687155855      -14.2219922876      -12.5798815641  BUTA      18              0.0000000000
      3134       153  BUTA      O1             17.9281619522      -15.0698776349      -11.5844129274  BUTA      18              0.0000000000
      3135       153  BUTA      DO1            17.9048183010      -15.0418272445      -11.6222213416  BUTA      18              0.0000000000
      3136       153  BUTA      O2             17.0438644456      -13.3136352446      -12.7378941669  BUTA      18              0.0000000000
      3137       153  BUTA      DO2            17.0271604177      -13.2830478221      -12.7344168516  BUTA      18              0.0000000000
      3138       153  BUTA      H1             20.4057292578      -12.0042324756      -13.3795451283  BUTA      18              0.0000000000
      3139       153  BUTA      H2             20.1193978919      -12.6268574879      -11.7128613032  BUTA      18              0.0000000000
      3140       153  BUTA      H3             21.7958990471      -12.6281763161      -12.4149315024  BUTA      18              0.0000000000
      3141       153  BUTA      H4             20.6578879116      -14.9088769622      -12.3762893807  BUTA      18              0.0000000000
      3142       153  BUTA      H5             21.0824364354      -14.3793008524      -14.0430684816  BUTA      18              0.0000000000
      3143       153  BUTA      H6             18.9478619485      -15.4252900734      -14.0002007778  BUTA      18              0.0000000000
      3144       153  BUTA      H7             18.7931241535      -13.7467436885      -14.4796554251  BUTA      18              0.0000000000
      3145       153  BUTA      H8             17.2119207502      -12.7749157491      -13.5256119995  BUTA      18              0.0000000000
      3146       153  BUTA      H9             17.2461457151      -14.9410030415      -10.9082426880  BUTA      18              0.0000000000
      3147       153  BUTA      LPO11          18.2035817793      -15.2830965411      -11.6187875812  BUTA      18              0.0000000000
      3148       153  BUTA      LPO12          17.6614715136      -15.0094754601      -11.3659460255  BUTA      18              0.0000000000
      3149       153  BUTA      LPO21          17.1232076196      -13.1365628243      -13.0291844324  BUTA      18              0.0000000000
      3150       153  BUTA      LPO22          16.8073272722      -13.3132277818      -12.4799213010  BUTA      18              0.0000000000
      3151       154  BUTA      C1            -13.1365442022       -8.9092530039       26.5359480869  BUTA      19              0.0000000000
      3152       154  BUTA      DC1           -13.1573650953       -8.9246911589       26.5471273597  BUTA      19              0.0000000000
      3153       154  BUTA      C2            -12.3874172545       -7.5856656951       26.4553137250  BUTA      19              0.0000000000
      3154       154  BUTA      DC2           -12.3329052228       -7.6463642699       26.4908563927  BUTA      19              0.0000000000
      3155       154  BUTA      C3            -13.1482769028       -6.4025516690       27.0856426712  BUTA      19              0.0000000000
      3156       154  BUTA      DC3           -13.1694325686       -6.4293900784       27.0808645346  BUTA      19              0.0000000000
      3157       154  BUTA      C4            -14.5183134381       -6.1230729281       26.5458071455  BUTA      19              0.0000000000
      3158       154  BUTA      DC4           -14.5308170567       -6.1296598807       26.5630069922  BUTA      19              0.0000000000
      3159       154  BUTA      O1            -14.5824270721       -5.6614715172       25.3609222817  BUTA      19              0.0000000000
      3160       154  BUTA      DO1           -14.5972174531       -5.6686672842       25.3863010533  BUTA      19              0.0000000000
      3161       154  BUTA      O2            -15.4857815184       -6.2864454858       27.3643848184  BUTA      19              0.0000000000
      3162       154  BUTA      DO2           -15.5062848677       -6.2781988284       27.3635450685  BUTA      19              0.0000000000
      3163       154  BUTA      H1            -13.3318818964       -9.2024346441       27.5896125065  BUTA      19              0.0000000000
      3164       154  BUTA      H2            -14.1139445010       -8.8222939592       26.0149415779  BUTA      19              0.0000000000
      3165       154  BUTA      H3            -12.5435204030       -9.7055923551       26.0374629698  BUTA      19              0.0000000000
      3166       154  BUTA      H4            -12.2292772331       -7.3410058491       25.3831876619  BUTA      19              0.0000000000
      3167       154  BUTA      H5            -11.3829048650       -7.6830431663       26.9198495034  BUTA      19              0.0000000000
      3168       154  BUTA      H6            -12.4859365325       -5.5219009528       26.9439368080  BUTA      19              0.0000000000
      3169       154  BUTA      H7            -13.1566323877       -6.5948599866       28.1798404124  BUTA      19              0.0000000000
      3170       154  BUTA      H8            -15.2194862732       -6.6047814054       28.2400046472  BUTA      19              0.0000000000
      3171       154  BUTA      H9            -15.4767097967       -5.4618038169       25.0457204132  BUTA      19              0.0000000000
      3172       154  BUTA      LPO11         -14.2603602419       -5.6268151110       25.2283632745  BUTA      19              0.0000000000
      3173       154  BUTA      LPO12         -14.9165495362       -5.6093305098       25.2706809700  BUTA      19              0.0000000000
      3174       154  BUTA      LPO21         -15.3632506642       -6.3904094837       27.6753151593  BUTA      19              0.0000000000
      3175       154  BUTA      LPO22         -15.7895823693       -6.2130918445       27.2068275708  BUTA      19              0.0000000000
      3176       155  BUTA      C1             12.5206352366        6.0206455616       11.4124624007  BUTA      20              0.0000000000
      3177       155  BUTA      DC1            12.5141026720        6.0215120730       11.4135232613  BUTA      20              0.0000000000
      3178       155  BUTA      C2             12.3962021877        5.7791825181        9.9113012759  BUTA      20              0.0000000000
      3179       155  BUTA      DC2            12.4063701718        5.8831646486        9.9091171337  BUTA      20              0.0000000000
      3180       155  BUTA      C3             11.5640257554        4.5228677310        9.5857786278  BUTA      20              0.0000000000
      3181       155  BUTA      DC3            11.6148689651        4.5388022329        9.6205599672  BUTA      20              0.0000000000
      3182       155  BUTA      C4             12.1571062079        3.2260492631       10.0482233299  BUTA      20              0.0000000000
      3183       155  BUTA      DC4            12.1806335315        3.2275214311       10.0368578113  BUTA      20              0.0000000000
      3184       155  BUTA      O1             13.2139189023        2.8515405792        9.4306948861  BUTA      20              0.0000000000
      3185       155  BUTA      DO1            13.2271661555        2.8421866826        9.4208930720  BUTA      20              0.0000000000
      3186       155  BUTA      O2             11.5648904397        2.6283982379       11.0048516020  BUTA      20              0.0000000000
      3187       155  BUTA      DO2            11.5802868196        2.6246961497       10.9961896968  BUTA      20              0.0000000000
      3188       155  BUTA      H1             11.5198545797        6.1206291557       11.8844394739  BUTA      20              0.0000000000
      3189       155  BUTA      H2             13.0217332507        5.1503217490       11.8876026342  BUTA      20              0.0000000000
      3190       155  BUTA      H3             13.1120462910        6.9318818195       11.6452765953  BUTA      20              0.0000000000
      3191       155  BUTA      H4             13.4088665856        5.6443319799        9.4746696793  BUTA      20              0.0000000000
      3192       155  BUTA      H5             11.9277865088        6.6563448133        9.4158277048  BUTA      20              0.0000000000
      3193       155  BUTA      H6             11.4165320583        4.5190371695        8.4846192672  BUTA      20              0.0000000000
      3194       155  BUTA      H7             10.5480981753        4.6999933317        9.9991049802  BUTA      20              0.0000000000
      3195       155  BUTA      H8             10.7465385211        3.0571851655       11.2970893614  BUTA      20              0.0000000000
      3196       155  BUTA      H9             13.5920585029        2.0260090674        9.7690278090  BUTA      20              0.0000000000
      3197       155  BUTA      LPO11          13.2982270835        3.0858505440        9.1847457634  BUTA      20              0.0000000000
      3198       155  BUTA      LPO12          13.3272762734        2.5471827561        9.5611418943  BUTA      20              0.0000000000
      3199       155  BUTA      LPO21          11.2854451449        2.8129569418       11.1065787472  BUTA      20              0.0000000000
      3200       155  BUTA      LPO22          11.7330435785        2.3315259574       11.0828988374  BUTA      20              0.0000000000
      3201       156  BUTA      C1             22.8671705650       15.3371933221      -14.8602147214  BUTA      21              0.0000000000
      3202       156  BUTA      DC1            22.8385551162       15.3262479615      -14.8343941659  BUTA      21              0.0000000000
      3203       156  BUTA      C2             22.5284806998       13.8525737243      -14.7775297284  BUTA      21              0.0000000000
      3204       156  BUTA      DC2            22.5944828067       13.8303642782      -14.8080360652  BUTA      21              0.0000000000
      3205       156  BUTA      C3             21.0094929489       13.5863053833      -14.8929809969  BUTA      21              0.0000000000
      3206       156  BUTA      DC3            21.0129146632       13.6378523492      -14.8640028712  BUTA      21              0.0000000000
      3207       156  BUTA      C4             20.0908080176       14.2464438419      -13.8979433098  BUTA      21              0.0000000000
      3208       156  BUTA      DC4            20.0832934921       14.2672275487      -13.8748572811  BUTA      21              0.0000000000
      3209       156  BUTA      O1             20.2898742821       13.9715761347      -12.6669563659  BUTA      21              0.0000000000
      3210       156  BUTA      DO1            20.2985145376       13.9940371631      -12.6556538011  BUTA      21              0.0000000000
      3211       156  BUTA      O2             19.2847299953       15.1259299186      -14.3607735249  BUTA      21              0.0000000000
      3212       156  BUTA      DO2            19.2771759891       15.1316695696      -14.3681086461  BUTA      21              0.0000000000
      3213       156  BUTA      H1             22.5927862165       15.7481041527      -15.8552958835  BUTA      21              0.0000000000
      3214       156  BUTA      H2             22.2943997929       15.9202022513      -14.1076489546  BUTA      21              0.0000000000
      3215       156  BUTA      H3             23.9516832887       15.5209119192      -14.7040077137  BUTA      21              0.0000000000
      3216       156  BUTA      H4             22.8893246328       13.4330927722      -13.8141251467  BUTA      21              0.0000000000
      3217       156  BUTA      H5             23.0589883435       13.3133705486      -15.5912511643  BUTA      21              0.0000000000
      3218       156  BUTA      H6             20.8918603035       12.4817118836      -14.8740928116  BUTA      21              0.0000000000
      3219       156  BUTA      H7             20.7586581539       13.8738517034      -15.9363984682  BUTA      21              0.0000000000
      3220       156  BUTA      H8             19.3558900149       15.2683624865      -15.3166031201  BUTA      21              0.0000000000
      3221       156  BUTA      H9             19.6508377128       14.3619605654      -12.0519821719  BUTA      21              0.0000000000
      3222       156  BUTA      LPO11          20.5584133861       13.7492722850      -12.6358477163  BUTA      21              0.0000000000
      3223       156  BUTA      LPO12          20.0586589787       14.1423438414      -12.4672619148  BUTA      21              0.0000000000
      3224       156  BUTA      LPO21          19.3300914701       15.1599206095      -14.7061529822  BUTA      21              0.0000000000
      3225       156  BUTA      LPO22          19.0885550217       15.2564870366      -14.1019874769  BUTA      21              0.0000000000
      3226       157  BUTA      C1             10.6504092836      -26.2406242328        4.5038085095  BUTA      22              0.0000000000
      3227       157  BUTA      DC1            10.6813423151      -26.2320357785        4.5057912518  BUTA      22              0.0000000000
      3228       157  BUTA      C2             11.4832866807      -27.2937314621        5.2315344458  BUTA      22              0.0000000000
      3229       157  BUTA      DC2            11.4403712025      -27.3514142863        5.2155397449  BUTA      22              0.0000000000
      3230       157  BUTA      C3             12.1723964049      -26.7385608686        6.4977411088  BUTA      22              0.0000000000
      3231       157  BUTA      DC3            12.1792236499      -26.7025525171        6.4718191931  BUTA      22              0.0000000000
      3232       157  BUTA      C4             13.0700569067      -25.5579840592        6.2835037034  BUTA      22              0.0000000000
      3233       157  BUTA      DC4            13.0739752669      -25.5312786327        6.2857892724  BUTA      22              0.0000000000
      3234       157  BUTA      O1             14.1794892014      -25.8018314915        5.6982808721  BUTA      22              0.0000000000
      3235       157  BUTA      DO1            14.1775729217      -25.7980910480        5.7004743479  BUTA      22              0.0000000000
      3236       157  BUTA      O2             12.6886636737      -24.4432556721        6.7824399121  BUTA      22              0.0000000000
      3237       157  BUTA      DO2            12.6900273230      -24.4203805665        6.7951860566  BUTA      22              0.0000000000
      3238       157  BUTA      H1              9.8222623781      -25.8761138883        5.1484990662  BUTA      22              0.0000000000
      3239       157  BUTA      H2             11.2768913453      -25.3636126024        4.2341942876  BUTA      22              0.0000000000
      3240       157  BUTA      H3             10.1979997134      -26.6511486220        3.5758449829  BUTA      22              0.0000000000
      3241       157  BUTA      H4             12.2701479889      -27.6754746815        4.5463757809  BUTA      22              0.0000000000
      3242       157  BUTA      H5             10.8320385678      -28.1495885355        5.5102916269  BUTA      22              0.0000000000
      3243       157  BUTA      H6             12.7226857019      -27.5922590861        6.9479655474  BUTA      22              0.0000000000
      3244       157  BUTA      H7             11.3520386468      -26.5246421982        7.2157751966  BUTA      22              0.0000000000
      3245       157  BUTA      H8             11.8544029596      -24.4911557834        7.2730269486  BUTA      22              0.0000000000
      3246       157  BUTA      H9             14.7518557032      -25.0280919834        5.5856542266  BUTA      22              0.0000000000
      3247       157  BUTA      LPO11          14.2026331160      -26.1428252673        5.6228646664  BUTA      22              0.0000000000
      3248       157  BUTA      LPO12          14.3642123666      -25.5065258157        5.6640476998  BUTA      22              0.0000000000
      3249       157  BUTA      LPO21          12.3824065421      -24.4842254605        6.9468419979  BUTA      22              0.0000000000
      3250       157  BUTA      LPO22          12.9235540347      -24.1936965378        6.7113993830  BUTA      22              0.0000000000
      3251       158  BUTA      C1             -3.5567975759       25.3424600885       23.7135519163  BUTA      23              0.0000000000
      3252       158  BUTA      DC1            -3.5402958128       25.3381233886       23.7256196235  BUTA      23              0.0000000000
      3253       158  BUTA      C2             -4.8452517953       26.1189689994       23.4593181763  BUTA      23              0.0000000000
      3254       158  BUTA      DC2            -4.8012842037       26.1312660856       23.3842510096  BUTA      23              0.0000000000
      3255       158  BUTA      C3             -5.3666534100       26.8238856433       24.7313840745  BUTA      23              0.0000000000
      3256       158  BUTA      DC3            -5.3454757826       26.7807545550       24.7302676590  BUTA      23              0.0000000000
      3257       158  BUTA      C4             -5.6785422454       25.9440306265       25.9154263130  BUTA      23              0.0000000000
      3258       158  BUTA      DC4            -5.6664295744       25.9457636880       25.9275502674  BUTA      23              0.0000000000
      3259       158  BUTA      O1             -6.5937304087       25.0786644655       25.7198829764  BUTA      23              0.0000000000
      3260       158  BUTA      DO1            -6.5876771056       25.0920173586       25.7229366113  BUTA      23              0.0000000000
      3261       158  BUTA      O2             -5.0001066156       26.1440514281       26.9828838723  BUTA      23              0.0000000000
      3262       158  BUTA      DO2            -4.9934832978       26.1473899709       27.0008448949  BUTA      23              0.0000000000
      3263       158  BUTA      H1             -2.7433288330       26.0254501502       24.0393036318  BUTA      23              0.0000000000
      3264       158  BUTA      H2             -3.7170943483       24.6085969858       24.5321304969  BUTA      23              0.0000000000
      3265       158  BUTA      H3             -3.2266682481       24.7962494665       22.8041622398  BUTA      23              0.0000000000
      3266       158  BUTA      H4             -5.6325083369       25.4222736203       23.0999246767  BUTA      23              0.0000000000
      3267       158  BUTA      H5             -4.6781960443       26.8741701000       22.6617690093  BUTA      23              0.0000000000
      3268       158  BUTA      H6             -6.2672767128       27.3919675490       24.4143957222  BUTA      23              0.0000000000
      3269       158  BUTA      H7             -4.6117370400       27.6027362826       24.9718294030  BUTA      23              0.0000000000
      3270       158  BUTA      H8             -4.3420670172       26.8513682120       26.9077316658  BUTA      23              0.0000000000
      3271       158  BUTA      H9             -6.8194407480       24.5440062574       26.4958703753  BUTA      23              0.0000000000
      3272       158  BUTA      LPO11          -6.7151815220       25.1047275548       25.3926669279  BUTA      23              0.0000000000
      3273       158  BUTA      LPO12          -6.6441802090       24.8900585903       26.0103698806  BUTA      23              0.0000000000
      3274       158  BUTA      LPO21          -4.7715761378       26.4043062279       26.9324729619  BUTA      23              0.0000000000
      3275       158  BUTA      LPO22          -5.1017931595       25.9211935814       27.2328723259  BUTA      23              0.0000000000
      3276       159  BUTA      C1            -28.1057261532       16.7334024690        8.9706968915  BUTA      24              0.0000000000
      3277       159  BUTA      DC1           -28.1369369242       16.7614263432        8.9878693518  BUTA      24              0.0000000000
      3278       159  BUTA      C2            -27.4424866953       15.7175632745        8.0424288564  BUTA      24              0.0000000000
      3279       159  BUTA      DC2           -27.5602236619       15.6928426839        8.0363284983  BUTA      24              0.0000000000
      3280       159  BUTA      C3            -26.0024018985       15.3845099827        8.4736800245  BUTA      24              0.0000000000
      3281       159  BUTA      DC3           -26.0602971086       15.4424255565        8.4702342322  BUTA      24              0.0000000000
      3282       159  BUTA      C4            -25.0859745975       16.5785565805        8.5581518600  BUTA      24              0.0000000000
      3283       159  BUTA      DC4           -25.0993354132       16.5772946323        8.5641099543  BUTA      24              0.0000000000
      3284       159  BUTA      O1            -24.9823625236       17.2315994015        7.4663090500  BUTA      24              0.0000000000
      3285       159  BUTA      DO1           -24.9950200327       17.2335127387        7.4773763568  BUTA      24              0.0000000000
      3286       159  BUTA      O2            -24.8260407320       16.9922081803        9.7413670655  BUTA      24              0.0000000000
      3287       159  BUTA      DO2           -24.8402041017       17.0039697860        9.7457845332  BUTA      24              0.0000000000
      3288       159  BUTA      H1            -28.1375612392       16.3365140608       10.0078984721  BUTA      24              0.0000000000
      3289       159  BUTA      H2            -27.4943504125       17.6607791664        8.9933500285  BUTA      24              0.0000000000
      3290       159  BUTA      H3            -29.1352004279       16.9851880308        8.6373686039  BUTA      24              0.0000000000
      3291       159  BUTA      H4            -27.3977309147       16.1290007159        7.0113919255  BUTA      24              0.0000000000
      3292       159  BUTA      H5            -28.0348671378       14.7781207340        8.0132034480  BUTA      24              0.0000000000
      3293       159  BUTA      H6            -25.6203078830       14.6196024077        7.7642848126  BUTA      24              0.0000000000
      3294       159  BUTA      H7            -26.0861004482       14.8464900845        9.4421066567  BUTA      24              0.0000000000
      3295       159  BUTA      H8            -25.0959846344       16.3794565163       10.4418145570  BUTA      24              0.0000000000
      3296       159  BUTA      H9            -24.3415647334       17.9579437120        7.4939339445  BUTA      24              0.0000000000
      3297       159  BUTA      LPO11         -25.1796028686       17.0826011196        7.2185273753  BUTA      24              0.0000000000
      3298       159  BUTA      LPO12         -24.7656884225       17.5030841318        7.5093017832  BUTA      24              0.0000000000
      3299       159  BUTA      LPO21         -24.9914050341       16.7929651698        9.9768598899  BUTA      24              0.0000000000
      3300       159  BUTA      LPO22         -24.6120618383       17.2688151139        9.7271671607  BUTA      24              0.0000000000
      3301       160  BUTA      C1              4.1519372752       -6.1543342706      -16.1770670074  BUTA      25              0.0000000000
      3302       160  BUTA      DC1             4.1536618457       -6.1854318382      -16.1711545754  BUTA      25              0.0000000000
      3303       160  BUTA      C2              4.4299918483       -5.2898700642      -17.4014914504  BUTA      25              0.0000000000
      3304       160  BUTA      DC2             4.5419349914       -5.3158421137      -17.3798963213  BUTA      25              0.0000000000
      3305       160  BUTA      C3              3.2980710790       -4.2682100462      -17.6063429757  BUTA      25              0.0000000000
      3306       160  BUTA      DC3             3.3152270194       -4.3448183482      -17.6175146088  BUTA      25              0.0000000000
      3307       160  BUTA      C4              1.9416228710       -4.8238668951      -17.9425455506  BUTA      25              0.0000000000
      3308       160  BUTA      DC4             1.9767409073       -4.8753203401      -18.0187969271  BUTA      25              0.0000000000
      3309       160  BUTA      O1              1.9070687715       -5.5741951999      -18.9750295847  BUTA      25              0.0000000000
      3310       160  BUTA      DO1             1.8928468195       -5.6163726244      -19.0370397225  BUTA      25              0.0000000000
      3311       160  BUTA      O2              0.9915985201       -4.5529356926      -17.1517083188  BUTA      25              0.0000000000
      3312       160  BUTA      DO2             1.0504004293       -4.5640390928      -17.1995319478  BUTA      25              0.0000000000
      3313       160  BUTA      H1              4.1162249119       -5.5123207681      -15.2710513943  BUTA      25              0.0000000000
      3314       160  BUTA      H2              3.1470619670       -6.6201193256      -16.2641927669  BUTA      25              0.0000000000
      3315       160  BUTA      H3              4.9160878427       -6.9488443417      -16.0386883343  BUTA      25              0.0000000000
      3316       160  BUTA      H4              4.5145411004       -5.9181833884      -18.3138481744  BUTA      25              0.0000000000
      3317       160  BUTA      H5              5.3878595213       -4.7469584745      -17.2529736846  BUTA      25              0.0000000000
      3318       160  BUTA      H6              3.6366323202       -3.5430352763      -18.3769393943  BUTA      25              0.0000000000
      3319       160  BUTA      H7              3.2700178534       -3.6805952823      -16.6638765808  BUTA      25              0.0000000000
      3320       160  BUTA      H8              1.2474564169       -3.9972385074      -16.4002441646  BUTA      25              0.0000000000
      3321       160  BUTA      H9              1.0209454234       -5.9010783237      -19.1915794294  BUTA      25              0.0000000000
      3322       160  BUTA      LPO11           2.2269416093       -5.6005320332      -19.1146280763  BUTA      25              0.0000000000
      3323       160  BUTA      LPO12           1.5807166418       -5.6885535728      -19.0290337509  BUTA      25              0.0000000000
      3324       160  BUTA      LPO21           1.1081685874       -4.3542734834      -16.8881846082  BUTA      25              0.0000000000
      3325       160  BUTA      LPO22           0.6952911826       -4.7003398106      -17.2656117327  BUTA      25              0.0000000000
      3326       161  BUTA      C1            -28.8668487887       -1.8837465404       -1.3958442247  BUTA      26              0.0000000000
      3327       161  BUTA      DC1           -28.8543374847       -1.8359861943       -1.3898788318  BUTA      26              0.0000000000
      3328       161  BUTA      C2            -28.5294767767       -1.0296888809       -0.1940060562  BUTA      26              0.0000000000
      3329       161  BUTA      DC2           -28.5346923622       -1.0846151683       -0.1213773459  BUTA      26              0.0000000000
      3330       161  BUTA      C3            -28.8098174054        0.4391578692       -0.5400049793  BUTA      26              0.0000000000
      3331       161  BUTA      DC3           -28.7898263335        0.4139554527       -0.5623204955  BUTA      26              0.0000000000
      3332       161  BUTA      C4            -28.1059711318        1.1079978395       -1.6783224096  BUTA      26              0.0000000000
      3333       161  BUTA      DC4           -28.1003597288        1.1109331012       -1.6808832410  BUTA      26              0.0000000000
      3334       161  BUTA      O1            -26.8421210452        1.1631378365       -1.5613103819  BUTA      26              0.0000000000
      3335       161  BUTA      DO1           -26.8413435993        1.1577928577       -1.5595719149  BUTA      26              0.0000000000
      3336       161  BUTA      O2            -28.8297341901        1.5494863507       -2.6369514974  BUTA      26              0.0000000000
      3337       161  BUTA      DO2           -28.8333886714        1.5462633026       -2.6405661884  BUTA      26              0.0000000000
      3338       161  BUTA      H1            -29.9160184584       -1.7137189437       -1.7193478894  BUTA      26              0.0000000000
      3339       161  BUTA      H2            -28.2129820257       -1.6209874993       -2.2547603688  BUTA      26              0.0000000000
      3340       161  BUTA      H3            -28.7575992793       -2.9650213408       -1.1651271861  BUTA      26              0.0000000000
      3341       161  BUTA      H4            -27.4650760081       -1.1698503216        0.0918728973  BUTA      26              0.0000000000
      3342       161  BUTA      H5            -29.1657552421       -1.3398549682        0.6623044673  BUTA      26              0.0000000000
      3343       161  BUTA      H6            -28.6972400970        1.0121602736        0.4051487618  BUTA      26              0.0000000000
      3344       161  BUTA      H7            -29.8973902128        0.4089885115       -0.7649409677  BUTA      26              0.0000000000
      3345       161  BUTA      H8            -29.7823933335        1.4445177708       -2.4941819148  BUTA      26              0.0000000000
      3346       161  BUTA      H9            -26.3891717669        1.6513040482       -2.2652220958  BUTA      26              0.0000000000
      3347       161  BUTA      LPO11         -26.7430444796        1.0131003359       -1.2610228820  BUTA      26              0.0000000000
      3348       161  BUTA      LPO12         -26.7030277008        1.3235663543       -1.8395472094  BUTA      26              0.0000000000
      3349       161  BUTA      LPO21         -29.1673499744        1.4838534133       -2.5720831713  BUTA      26              0.0000000000
      3350       161  BUTA      LPO22         -28.6275210048        1.6977135725       -2.8811614858  BUTA      26              0.0000000000
      3351       162  BUTA      C1              1.0224473889      -22.5042713747      -24.7389964561  BUTA      27              0.0000000000
      3352       162  BUTA      DC1             1.0554776546      -22.5148544606      -24.7249306119  BUTA      27              0.0000000000
      3353       162  BUTA      C2              0.7354640526      -21.1825618432      -25.4426175051  BUTA      27              0.0000000000
      3354       162  BUTA      DC2             0.7398145803      -21.1465310977      -25.3396603576  BUTA      27              0.0000000000
      3355       162  BUTA      C3              0.0569931847      -21.4142988102      -26.8032343381  BUTA      27              0.0000000000
      3356       162  BUTA      DC3             0.1139927954      -21.4269450267      -26.7734146909  BUTA      27              0.0000000000
      3357       162  BUTA      C4              0.8491384845      -22.1818551678      -27.8266617848  BUTA      27              0.0000000000
      3358       162  BUTA      DC4             0.8772535546      -22.1527406102      -27.8238239512  BUTA      27              0.0000000000
      3359       162  BUTA      O1              1.9246209216      -21.6176289568      -28.2273754799  BUTA      27              0.0000000000
      3360       162  BUTA      DO1             1.9480537558      -21.6143615634      -28.2386613493  BUTA      27              0.0000000000
      3361       162  BUTA      O2              0.4071942904      -23.3284721733      -28.1576387793  BUTA      27              0.0000000000
      3362       162  BUTA      DO2             0.4199310586      -23.2960757934      -28.1490905050  BUTA      27              0.0000000000
      3363       162  BUTA      H1              0.0730084195      -23.0520914732      -24.5579445744  BUTA      27              0.0000000000
      3364       162  BUTA      H2              1.6404709819      -23.1479949951      -25.4008028773  BUTA      27              0.0000000000
      3365       162  BUTA      H3              1.5426873319      -22.3538422361      -23.7689230171  BUTA      27              0.0000000000
      3366       162  BUTA      H4              1.6790479670      -20.6225202700      -25.6167549047  BUTA      27              0.0000000000
      3367       162  BUTA      H5              0.0646746472      -20.5605706557      -24.8121497928  BUTA      27              0.0000000000
      3368       162  BUTA      H6             -0.2230707220      -20.4094157179      -27.1854583317  BUTA      27              0.0000000000
      3369       162  BUTA      H7             -0.9122744381      -21.9055946834      -26.5719993057  BUTA      27              0.0000000000
      3370       162  BUTA      H8             -0.4327372970      -23.5683470132      -27.7381915354  BUTA      27              0.0000000000
      3371       162  BUTA      H9              2.3907973274      -22.1083031848      -28.9208301364  BUTA      27              0.0000000000
      3372       162  BUTA      LPO11           1.9654487250      -21.3096463937      -28.0661928775  BUTA      27              0.0000000000
      3373       162  BUTA      LPO12           2.0851268147      -21.8199865978      -28.4635729469  BUTA      27              0.0000000000
      3374       162  BUTA      LPO21           0.1131867740      -23.3989174131      -27.9812952269  BUTA      27              0.0000000000
      3375       162  BUTA      LPO22           0.6180609530      -23.4737345231      -28.3962474555  BUTA      27              0.0000000000
      3376       163  BUTA      C1            -18.4526323921      -24.4030975132       28.1147630654  BUTA      28              0.0000000000
      3377       163  BUTA      DC1           -18.4859316155      -24.4007379755       28.1230283947  BUTA      28              0.0000000000
      3378       163  BUTA      C2            -17.4403919194      -23.2690965062       28.0716484095  BUTA      28              0.0000000000
      3379       163  BUTA      DC2           -17.3944417410      -23.3307334652       28.1029060866  BUTA      28              0.0000000000
      3380       163  BUTA      C3            -18.0601358016      -21.9131724335       28.4780941693  BUTA      28              0.0000000000
      3381       163  BUTA      DC3           -18.0892330979      -21.9514931074       28.4555335538  BUTA      28              0.0000000000
      3382       163  BUTA      C4            -19.2114622663      -21.3950118426       27.6459551705  BUTA      28              0.0000000000
      3383       163  BUTA      DC4           -19.2172032060      -21.4004590521       27.6300952067  BUTA      28              0.0000000000
      3384       163  BUTA      O1            -18.9721146125      -21.1664972159       26.4100635621  BUTA      28              0.0000000000
      3385       163  BUTA      DO1           -18.9820474830      -21.1668410328       26.3980613333  BUTA      28              0.0000000000
      3386       163  BUTA      O2            -20.3473529985      -21.3495986571       28.2307567726  BUTA      28              0.0000000000
      3387       163  BUTA      DO2           -20.3479153233      -21.3545206498       28.2263300417  BUTA      28              0.0000000000
      3388       163  BUTA      H1            -18.8031416881      -24.6091331111       29.1486941880  BUTA      28              0.0000000000
      3389       163  BUTA      H2            -19.3358556223      -24.0789303582       27.5238710438  BUTA      28              0.0000000000
      3390       163  BUTA      H3            -18.0489748525      -25.3368397130       27.6681008925  BUTA      28              0.0000000000
      3391       163  BUTA      H4            -17.0583594920      -23.1711347771       27.0330071220  BUTA      28              0.0000000000
      3392       163  BUTA      H5            -16.5759243237      -23.5120862557       28.7258446782  BUTA      28              0.0000000000
      3393       163  BUTA      H6            -17.2231443858      -21.1827157496       28.4922152573  BUTA      28              0.0000000000
      3394       163  BUTA      H7            -18.3439262567      -22.0370872246       29.5450661006  BUTA      28              0.0000000000
      3395       163  BUTA      H8            -20.3287927417      -21.6209415255       29.1608049244  BUTA      28              0.0000000000
      3396       163  BUTA      H9            -19.7175801781      -20.7854668961       25.9221516994  BUTA      28              0.0000000000
      3397       163  BUTA      LPO11         -18.6382150452      -21.2417145564       26.3368964204  BUTA      28              0.0000000000
      3398       163  BUTA      LPO12         -19.2612260143      -21.0485188506       26.2519632690  BUTA      28              0.0000000000
      3399       163  BUTA      LPO21         -20.3172739587      -21.4649674271       28.5598240883  BUTA      28              0.0000000000
      3400       163  BUTA      LPO22         -20.5901577515      -21.2257250618       28.0112090914  BUTA      28              0.0000000000
      3401       164  BUTA      C1            -21.3358165717        5.0153560884       -1.9030283823  BUTA      29              0.0000000000
      3402       164  BUTA      DC1           -21.3104471886        4.9910818916       -1.9305010857  BUTA      29              0.0000000000
      3403       164  BUTA      C2            -20.9101494914        4.2643915515       -3.1593030804  BUTA      29              0.0000000000
      3404       164  BUTA      DC2           -20.9582888407        4.2634687701       -3.2121706372  BUTA      29              0.0000000000
      3405       164  BUTA      C3            -20.2297627188        2.9173455748       -2.8271465111  BUTA      29              0.0000000000
      3406       164  BUTA      DC3           -20.1854544326        2.9149504985       -2.8226911167  BUTA      29              0.0000000000
      3407       164  BUTA      C4            -18.9145986212        2.9519327548       -2.0808450030  BUTA      29              0.0000000000
      3408       164  BUTA      DC4           -18.8882724212        2.9350881740       -2.0744714404  BUTA      29              0.0000000000
      3409       164  BUTA      O1            -17.9243031332        3.2583929813       -2.8316087835  BUTA      29              0.0000000000
      3410       164  BUTA      DO1           -17.9258317414        3.2321912142       -2.8621262307  BUTA      29              0.0000000000
      3411       164  BUTA      O2            -18.8624708379        2.1599936341       -1.0758610480  BUTA      29              0.0000000000
      3412       164  BUTA      DO2           -18.8537943910        2.1151744414       -1.0854453241  BUTA      29              0.0000000000
      3413       164  BUTA      H1            -22.0174169980        4.3985262734       -1.2791190632  BUTA      29              0.0000000000
      3414       164  BUTA      H2            -20.4538287337        5.2687122967       -1.2767464284  BUTA      29              0.0000000000
      3415       164  BUTA      H3            -21.8625923625        5.9614849992       -2.1513595142  BUTA      29              0.0000000000
      3416       164  BUTA      H4            -20.2080809151        4.8970886862       -3.7433536346  BUTA      29              0.0000000000
      3417       164  BUTA      H5            -21.8073096506        4.0786251015       -3.7877260886  BUTA      29              0.0000000000
      3418       164  BUTA      H6            -20.0948557408        2.4146989222       -3.8087102902  BUTA      29              0.0000000000
      3419       164  BUTA      H7            -21.0058415549        2.3160365950       -2.3070982913  BUTA      29              0.0000000000
      3420       164  BUTA      H8            -19.7196400804        1.7919570994       -0.8136187957  BUTA      29              0.0000000000
      3421       164  BUTA      H9            -17.0831021560        3.3470242728       -2.3588652905  BUTA      29              0.0000000000
      3422       164  BUTA      LPO11         -18.0346934639        3.3121233579       -3.1593693997  BUTA      29              0.0000000000
      3423       164  BUTA      LPO12         -17.6286771700        3.2619862567       -2.6442791855  BUTA      29              0.0000000000
      3424       164  BUTA      LPO21         -19.1649073493        1.9867037499       -1.0441944631  BUTA      29              0.0000000000
      3425       164  BUTA      LPO22         -18.5502886215        2.1852241810       -0.9196378639  BUTA      29              0.0000000000
      3426       165  BUTA      C1              0.9372799104       -7.8752905512       21.6706217353  BUTA      30              0.0000000000
      3427       165  BUTA      DC1             0.9638924797       -7.8877039352       21.6676457929  BUTA      30              0.0000000000
      3428       165  BUTA      C2              1.9727797612       -8.7071802662       20.9430317134  BUTA      30              0.0000000000
      3429       165  BUTA      DC2             1.9614913249       -8.7773410220       20.9661225023  BUTA      30              0.0000000000
      3430       165  BUTA      C3              3.3082323828       -7.9650448485       20.7804788640  BUTA      30              0.0000000000
      3431       165  BUTA      DC3             3.3120678080       -7.9621839898       20.7729351933  BUTA      30              0.0000000000
      3432       165  BUTA      C4              3.2551869996       -6.6807431725       19.9918298779  BUTA      30              0.0000000000
      3433       165  BUTA      DC4             3.2539037199       -6.7121106660       19.9575635591  BUTA      30              0.0000000000
      3434       165  BUTA      O1              3.1943094265       -6.8428538524       18.7223601417  BUTA      30              0.0000000000
      3435       165  BUTA      DO1             3.2103827423       -6.8515070481       18.6941331277  BUTA      30              0.0000000000
      3436       165  BUTA      O2              3.6666360190       -5.6595794385       20.6305788207  BUTA      30              0.0000000000
      3437       165  BUTA      DO2             3.6679091376       -5.6974699977       20.6137305508  BUTA      30              0.0000000000
      3438       165  BUTA      H1              1.2618793919       -7.6099243290       22.6994739816  BUTA      30              0.0000000000
      3439       165  BUTA      H2              0.8054198401       -6.9292074645       21.1032940380  BUTA      30              0.0000000000
      3440       165  BUTA      H3             -0.0441120543       -8.3929575137       21.7272938448  BUTA      30              0.0000000000
      3441       165  BUTA      H4              1.5847244375       -8.9135906592       19.9226745133  BUTA      30              0.0000000000
      3442       165  BUTA      H5              2.1247369753       -9.6690191260       21.4779111511  BUTA      30              0.0000000000
      3443       165  BUTA      H6              3.9878007369       -8.6983265378       20.2959112042  BUTA      30              0.0000000000
      3444       165  BUTA      H7              3.7031642948       -7.8233380021       21.8092008646  BUTA      30              0.0000000000
      3445       165  BUTA      H8              3.8438125253       -5.8175234475       21.5700590896  BUTA      30              0.0000000000
      3446       165  BUTA      H9              3.1289997591       -6.0139989070       18.2246703518  BUTA      30              0.0000000000
      3447       165  BUTA      LPO11           3.1942507505       -7.1842292680       18.6451408298  BUTA      30              0.0000000000
      3448       165  BUTA      LPO12           3.1829923166       -6.5317709775       18.5623621168  BUTA      30              0.0000000000
      3449       165  BUTA      LPO21           3.7657258078       -5.7521305182       20.9532481737  BUTA      30              0.0000000000
      3450       165  BUTA      LPO22           3.6449388268       -5.3749498525       20.4280566475  BUTA      30              0.0000000000
      3451       166  BUTA      C1            -18.9125689008      -21.7785306613        8.3531835457  BUTA      31              0.0000000000
      3452       166  BUTA      DC1           -18.9097311544      -21.7773657108        8.3393244047  BUTA      31              0.0000000000
      3453       166  BUTA      C2            -17.5427139045      -21.1098064226        8.3682743978  BUTA      31              0.0000000000
      3454       166  BUTA      DC2           -17.5910972356      -21.0164013555        8.3521567816  BUTA      31              0.0000000000
      3455       166  BUTA      C3            -16.4308188381      -22.0364442489        7.8413357011  BUTA      31              0.0000000000
      3456       166  BUTA      DC3           -16.4768138949      -22.0248477618        7.8608528110  BUTA      31              0.0000000000
      3457       166  BUTA      C4            -16.2602858634      -23.3552248479        8.5426921485  BUTA      31              0.0000000000
      3458       166  BUTA      DC4           -16.2633263299      -23.3306008736        8.5490652602  BUTA      31              0.0000000000
      3459       166  BUTA      O1            -15.9518763094      -23.2690327667        9.7734567779  BUTA      31              0.0000000000
      3460       166  BUTA      DO1           -15.9553179306      -23.2607215314        9.7702250998  BUTA      31              0.0000000000
      3461       166  BUTA      O2            -16.4882366035      -24.4002989606        7.8544215089  BUTA      31              0.0000000000
      3462       166  BUTA      DO2           -16.4903336853      -24.3754346657        7.8627211164  BUTA      31              0.0000000000
      3463       166  BUTA      H1            -19.2423874964      -21.9531492551        7.3067376366  BUTA      31              0.0000000000
      3464       166  BUTA      H2            -18.8667425556      -22.7715216402        8.8493587792  BUTA      31              0.0000000000
      3465       166  BUTA      H3            -19.6856621089      -21.1689233083        8.8679910513  BUTA      31              0.0000000000
      3466       166  BUTA      H4            -17.2873266324      -20.8331503360        9.4135302282  BUTA      31              0.0000000000
      3467       166  BUTA      H5            -17.5666086276      -20.1789957867        7.7621872715  BUTA      31              0.0000000000
      3468       166  BUTA      H6            -15.4925351070      -21.4437016971        7.8923347967  BUTA      31              0.0000000000
      3469       166  BUTA      H7            -16.6192656213      -22.1725764508        6.7549302365  BUTA      31              0.0000000000
      3470       166  BUTA      H8            -16.6970923220      -24.2307476893        6.9235119240  BUTA      31              0.0000000000
      3471       166  BUTA      H9            -15.8176095777      -24.1195655574       10.2178973440  BUTA      31              0.0000000000
      3472       166  BUTA      LPO11         -15.9270816180      -22.9327857205        9.8673883871  BUTA      31              0.0000000000
      3473       166  BUTA      LPO12         -15.9186107890      -23.5890535631        9.9112250438  BUTA      31              0.0000000000
      3474       166  BUTA      LPO21         -16.5809516991      -24.3113572937        7.5288554005  BUTA      31              0.0000000000
      3475       166  BUTA      LPO22         -16.4384277562      -24.6859507123        8.0504372109  BUTA      31              0.0000000000
      3476       167  BUTA      C1             -6.0871504618       -7.9413797786      -23.3882732965  BUTA      32              0.0000000000
      3477       167  BUTA      DC1            -6.0635876062       -7.9224216206      -23.3905373792  BUTA      32              0.0000000000
      3478       167  BUTA      C2             -5.6687776544       -7.5654867585      -24.8048300120  BUTA      32              0.0000000000
      3479       167  BUTA      DC2            -5.6225500150       -7.6243096003      -24.8164434683  BUTA      32              0.0000000000
      3480       167  BUTA      C3             -5.2085270368       -6.0969604477      -24.9152103082  BUTA      32              0.0000000000
      3481       167  BUTA      DC3            -5.2147780330       -6.0889190991      -24.9153980433  BUTA      32              0.0000000000
      3482       167  BUTA      C4             -6.2367717501       -5.0163452418      -24.6539634119  BUTA      32              0.0000000000
      3483       167  BUTA      DC4            -6.2197579926       -5.0012614310      -24.6518089081  BUTA      32              0.0000000000
      3484       167  BUTA      O1             -7.0226220206       -4.8592434797      -25.6478030820  BUTA      32              0.0000000000
      3485       167  BUTA      DO1            -6.9846254316       -4.8402083071      -25.6631621586  BUTA      32              0.0000000000
      3486       167  BUTA      O2             -5.8346669655       -4.1069654782      -23.8410372365  BUTA      32              0.0000000000
      3487       167  BUTA      DO2            -5.8121051375       -4.0844223374      -23.8477887796  BUTA      32              0.0000000000
      3488       167  BUTA      H1             -5.2611536688       -7.7693440152      -22.6654635049  BUTA      32              0.0000000000
      3489       167  BUTA      H2             -6.9529672593       -7.3215693268      -23.0712286956  BUTA      32              0.0000000000
      3490       167  BUTA      H3             -6.3913807725       -9.0083896672      -23.3312223054  BUTA      32              0.0000000000
      3491       167  BUTA      H4             -6.5378770312       -7.7212339257      -25.4791667939  BUTA      32              0.0000000000
      3492       167  BUTA      H5             -4.8512263404       -8.2372511691      -25.1434498957  BUTA      32              0.0000000000
      3493       167  BUTA      H6             -4.8337162601       -6.0027150583      -25.9568223704  BUTA      32              0.0000000000
      3494       167  BUTA      H7             -4.3036769082       -5.9999284811      -24.2779097177  BUTA      32              0.0000000000
      3495       167  BUTA      H8             -5.0350703429       -4.3421793907      -23.3467896704  BUTA      32              0.0000000000
      3496       167  BUTA      H9             -7.7316084300       -4.2177086554      -25.4905378904  BUTA      32              0.0000000000
      3497       167  BUTA      LPO11          -6.9367735887       -5.0810995112      -25.9045324103  BUTA      32              0.0000000000
      3498       167  BUTA      LPO12          -7.2558377791       -4.6079267894      -25.5774444921  BUTA      32              0.0000000000
      3499       167  BUTA      LPO21          -5.5081214685       -4.1763042010      -23.7358698466  BUTA      32              0.0000000000
      3500       167  BUTA      LPO22          -6.0862555569       -3.8681080237      -23.7946659405  BUTA      32              0.0000000000
      3501       168  BUTA      C1            -12.1875071724       -2.8090372657      -12.4249129493  BUTA      33              0.0000000000
      3502       168  BUTA      DC1           -12.1705035684       -2.7858801893      -12.4351645286  BUTA      33              0.0000000000
      3503       168  BUTA      C2            -12.4554406471       -4.1530274195      -13.0966085739  BUTA      33              0.0000000000
      3504       168  BUTA      DC2           -12.3556016895       -4.1602726941      -13.0894651965  BUTA      33              0.0000000000
      3505       168  BUTA      C3            -13.6414955073       -4.1137053367      -14.0819492394  BUTA      33              0.0000000000
      3506       168  BUTA      DC3           -13.6250001407       -4.0866526299      -14.0363311790  BUTA      33              0.0000000000
      3507       168  BUTA      C4            -14.9477470490       -3.6281547723      -13.5210207563  BUTA      33              0.0000000000
      3508       168  BUTA      DC4           -14.9402532131       -3.6125169251      -13.5139136369  BUTA      33              0.0000000000
      3509       168  BUTA      O1            -15.5373850905       -4.4248780627      -12.7229466822  BUTA      33              0.0000000000
      3510       168  BUTA      DO1           -15.5369607355       -4.4095827868      -12.7343180810  BUTA      33              0.0000000000
      3511       168  BUTA      O2            -15.3005495581       -2.4368279499      -13.8160930604  BUTA      33              0.0000000000
      3512       168  BUTA      DO2           -15.3044573875       -2.4284526147      -13.7951973374  BUTA      33              0.0000000000
      3513       168  BUTA      H1            -11.9681423136       -2.0180641118      -13.1736195197  BUTA      33              0.0000000000
      3514       168  BUTA      H2            -13.0982241082       -2.4898947713      -11.8744007027  BUTA      33              0.0000000000
      3515       168  BUTA      H3            -11.3544162419       -2.8708831413      -11.6924816623  BUTA      33              0.0000000000
      3516       168  BUTA      H4            -12.7048304108       -4.8999349324      -12.3128644109  BUTA      33              0.0000000000
      3517       168  BUTA      H5            -11.5449184289       -4.5046828409      -13.6272767897  BUTA      33              0.0000000000
      3518       168  BUTA      H6            -13.7290704815       -5.1455334395      -14.4844196007  BUTA      33              0.0000000000
      3519       168  BUTA      H7            -13.3188788313       -3.5040135557      -14.9528771426  BUTA      33              0.0000000000
      3520       168  BUTA      H8            -14.7480639200       -2.0131732821      -14.4900643818  BUTA      33              0.0000000000
      3521       168  BUTA      H9            -16.4003232228       -4.1184460558      -12.4060899246  BUTA      33              0.0000000000
      3522       168  BUTA      LPO11         -15.3488527841       -4.7172658722      -12.6846721695  BUTA      33              0.0000000000
      3523       168  BUTA      LPO12         -15.8368509900       -4.2823845462      -12.6110727675  BUTA      33              0.0000000000
      3524       168  BUTA      LPO21         -15.0588658698       -2.2875853269      -14.0205817748  BUTA      33              0.0000000000
      3525       168  BUTA      LPO22         -15.6083758757       -2.3627232713      -13.6669238449  BUTA      33              0.0000000000
      3526       169  BUTA      C1             21.9311532302      -17.1039556318      -13.2633399206  BUTA      34              0.0000000000
      3527       169  BUTA      DC1            21.9676306875      -17.0913180353      -13.2044364803  BUTA      34              0.0000000000
      3528       169  BUTA      C2             22.8412290504      -16.7325104239      -12.1138591276  BUTA      34              0.0000000000
      3529       169  BUTA      DC2            22.9572287937      -16.6685919635      -12.1638124796  BUTA      34              0.0000000000
      3530       169  BUTA      C3             22.6671131958      -17.6406339398      -10.8984021954  BUTA      34              0.0000000000
      3531       169  BUTA      DC3            22.6679242132      -17.6005823579      -10.9178541109  BUTA      34              0.0000000000
      3532       169  BUTA      C4             21.3609828458      -17.4240174553      -10.2177916486  BUTA      34              0.0000000000
      3533       169  BUTA      DC4            21.3968077336      -17.3539440859      -10.2045392661  BUTA      34              0.0000000000
      3534       169  BUTA      O1             21.2999926282      -16.2939017324       -9.6127586719  BUTA      34              0.0000000000
      3535       169  BUTA      DO1            21.3223568000      -16.2512965658       -9.5807484143  BUTA      34              0.0000000000
      3536       169  BUTA      O2             20.6556550406      -18.4626150813      -10.0544307883  BUTA      34              0.0000000000
      3537       169  BUTA      DO2            20.7106756991      -18.4177375956      -10.0582120894  BUTA      34              0.0000000000
      3538       169  BUTA      H1             22.1334312131      -18.1378554898      -13.6161227180  BUTA      34              0.0000000000
      3539       169  BUTA      H2             20.8659670448      -17.0715206732      -12.9492581413  BUTA      34              0.0000000000
      3540       169  BUTA      H3             22.0612704147      -16.4238078833      -14.1321261777  BUTA      34              0.0000000000
      3541       169  BUTA      H4             22.5549821817      -15.7077891136      -11.7939685739  BUTA      34              0.0000000000
      3542       169  BUTA      H5             23.8970078212      -16.7592864422      -12.4587290056  BUTA      34              0.0000000000
      3543       169  BUTA      H6             23.5002346303      -17.4213223715      -10.1968809117  BUTA      34              0.0000000000
      3544       169  BUTA      H7             22.8377839666      -18.6864305869      -11.2323211409  BUTA      34              0.0000000000
      3545       169  BUTA      H8             21.0098892870      -19.2563629508      -10.4827337400  BUTA      34              0.0000000000
      3546       169  BUTA      H9             20.4356417421      -16.1260276034       -9.2081887489  BUTA      34              0.0000000000
      3547       169  BUTA      LPO11          21.6004953175      -16.1193903296       -9.6545187486  BUTA      34              0.0000000000
      3548       169  BUTA      LPO12          20.9881118272      -16.2575828831       -9.4581258579  BUTA      34              0.0000000000
      3549       169  BUTA      LPO21          20.8214450674      -18.7417081962      -10.1852768822  BUTA      34              0.0000000000
      3550       169  BUTA      LPO22          20.3564842948      -18.3799255353       -9.8926924075  BUTA      34              0.0000000000
      3551       170  BUTA      C1             -8.3284971245       10.3406202708        6.4939288431  BUTA      35              0.0000000000
      3552       170  BUTA      DC1            -8.3034247964       10.2824439223        6.5292225978  BUTA      35              0.0000000000
      3553       170  BUTA      C2             -7.1953192854        9.3719169006        6.8085456512  BUTA      35              0.0000000000
      3554       170  BUTA      DC2            -7.1726535701        9.3057940372        6.7306006105  BUTA      35              0.0000000000
      3555       170  BUTA      C3             -7.2653394126        8.8591014576        8.2546639593  BUTA      35              0.0000000000
      3556       170  BUTA      DC3            -7.2638908694        8.8737621835        8.2542475748  BUTA      35              0.0000000000
      3557       170  BUTA      C4             -7.1560334073        9.9261949016        9.3130823228  BUTA      35              0.0000000000
      3558       170  BUTA      DC4            -7.1033534097        9.9280304100        9.3080354941  BUTA      35              0.0000000000
      3559       170  BUTA      O1             -5.9639589205       10.3107481289        9.5828250317  BUTA      35              0.0000000000
      3560       170  BUTA      DO1            -5.9296660790       10.3063214972        9.6083341423  BUTA      35              0.0000000000
      3561       170  BUTA      O2             -8.1720846767       10.0283557899       10.0666790058  BUTA      35              0.0000000000
      3562       170  BUTA      DO2            -8.1324935691       10.0093017803       10.0526449252  BUTA      35              0.0000000000
      3563       170  BUTA      H1             -9.3267178816        9.8714415160        6.6271490278  BUTA      35              0.0000000000
      3564       170  BUTA      H2             -8.2910089172       11.2248312037        7.1655586975  BUTA      35              0.0000000000
      3565       170  BUTA      H3             -8.2596961439       10.7192014838        5.4516890961  BUTA      35              0.0000000000
      3566       170  BUTA      H4             -6.2302152198        9.9069865190        6.6797215536  BUTA      35              0.0000000000
      3567       170  BUTA      H5             -7.2152890642        8.5221786783        6.0930967272  BUTA      35              0.0000000000
      3568       170  BUTA      H6             -6.4522043454        8.1096031026        8.3613625024  BUTA      35              0.0000000000
      3569       170  BUTA      H7             -8.2097665627        8.2792846487        8.3333457629  BUTA      35              0.0000000000
      3570       170  BUTA      H8             -8.9102875394        9.4478851395        9.8277828829  BUTA      35              0.0000000000
      3571       170  BUTA      H9             -5.9215675463       10.9802123494       10.2820972454  BUTA      35              0.0000000000
      3572       170  BUTA      LPO11          -5.7341227748       10.1357330446        9.3852267867  BUTA      35              0.0000000000
      3573       170  BUTA      LPO12          -5.9710498689       10.5576189448        9.8308260774  BUTA      35              0.0000000000
      3574       170  BUTA      LPO21          -8.4146008497        9.7939980123        9.9730716454  BUTA      35              0.0000000000
      3575       170  BUTA      LPO22          -8.1212399171       10.2819855495       10.3024474419  BUTA      35              0.0000000000
      3576       171  BUTA      C1             -4.1748220964       25.5643585401       -0.7042911918  BUTA      36              0.0000000000
      3577       171  BUTA      DC1            -4.1795037565       25.5763143746       -0.6919280230  BUTA      36              0.0000000000
      3578       171  BUTA      C2             -4.9417256099       25.8813625613       -1.9806653095  BUTA      36              0.0000000000
      3579       171  BUTA      DC2            -4.8895149753       25.9553756272       -1.9763970226  BUTA      36              0.0000000000
      3580       171  BUTA      C3             -6.3642213317       25.2893532163       -1.9642212853  BUTA      36              0.0000000000
      3581       171  BUTA      DC3            -6.3237755409       25.2675879161       -1.9555429031  BUTA      36              0.0000000000
      3582       171  BUTA      C4             -6.5073855097       23.7918688100       -1.9466271106  BUTA      36              0.0000000000
      3583       171  BUTA      DC4            -6.4662168964       23.7805271892       -2.0144512779  BUTA      36              0.0000000000
      3584       171  BUTA      O1             -5.9020377193       23.1707802529       -2.8815384047  BUTA      36              0.0000000000
      3585       171  BUTA      DO1            -5.8752379062       23.1376316895       -2.9201459122  BUTA      36              0.0000000000
      3586       171  BUTA      O2             -7.2651683291       23.3072926207       -1.0532865913  BUTA      36              0.0000000000
      3587       171  BUTA      DO2            -7.2345642068       23.3407105155       -1.0944069830  BUTA      36              0.0000000000
      3588       171  BUTA      H1             -4.7219965059       25.9328544990        0.1896505817  BUTA      36              0.0000000000
      3589       171  BUTA      H2             -4.0752651730       24.4635313186       -0.5920911590  BUTA      36              0.0000000000
      3590       171  BUTA      H3             -3.1548835547       26.0046593740       -0.7177651412  BUTA      36              0.0000000000
      3591       171  BUTA      H4             -4.4007277942       25.4735560726       -2.8611970987  BUTA      36              0.0000000000
      3592       171  BUTA      H5             -5.0153819931       26.9827378597       -2.1066343104  BUTA      36              0.0000000000
      3593       171  BUTA      H6             -6.8571723351       25.7258837689       -2.8590740025  BUTA      36              0.0000000000
      3594       171  BUTA      H7             -6.8882775656       25.7667798492       -1.1087974875  BUTA      36              0.0000000000
      3595       171  BUTA      H8             -7.6260476278       23.9618272494       -0.4365925410  BUTA      36              0.0000000000
      3596       171  BUTA      H9             -6.0483450483       22.2129070609       -2.8873790793  BUTA      36              0.0000000000
      3597       171  BUTA      LPO11          -5.7359484331       23.3987728198       -3.0887429858  BUTA      36              0.0000000000
      3598       171  BUTA      LPO12          -5.9544794181       22.8261849376       -2.8498534418  BUTA      36              0.0000000000
      3599       171  BUTA      LPO21          -7.3996201336       23.5646500323       -0.8578642921  BUTA      36              0.0000000000
      3600       171  BUTA      LPO22          -7.2738272540       22.9584207936       -1.0799974733  BUTA      36              0.0000000000
      3601       172  BUTA      C1            -22.4814932938       10.3854476908      -10.9159478380  BUTA      37              0.0000000000
      3602       172  BUTA      DC1           -22.5101558410       10.4168991875      -10.9074630061  BUTA      37              0.0000000000
      3603       172  BUTA      C2            -21.7933518760        9.7111603122      -12.1030785515  BUTA      37              0.0000000000
      3604       172  BUTA      DC2           -21.8023722073        9.6565613508      -12.0427055897  BUTA      37              0.0000000000
      3605       172  BUTA      C3            -20.7910687619       10.6338137149      -12.8239583360  BUTA      37              0.0000000000
      3606       172  BUTA      DC3           -20.8373086195       10.6482539840      -12.8006783667  BUTA      37              0.0000000000
      3607       172  BUTA      C4            -21.4153111479       11.8794096068      -13.3575628292  BUTA      37              0.0000000000
      3608       172  BUTA      DC4           -21.4231385594       11.8887216649      -13.3501823924  BUTA      37              0.0000000000
      3609       172  BUTA      O1            -21.8702580031       11.8032882221      -14.5427342426  BUTA      37              0.0000000000
      3610       172  BUTA      DO1           -21.8701694946       11.7981538828      -14.5395215333  BUTA      37              0.0000000000
      3611       172  BUTA      O2            -21.4195634518       12.8841938594      -12.5726874817  BUTA      37              0.0000000000
      3612       172  BUTA      DO2           -21.4245403360       12.8945911845      -12.5558188068  BUTA      37              0.0000000000
      3613       172  BUTA      H1            -21.7231959595       10.7960193609      -10.2154215670  BUTA      37              0.0000000000
      3614       172  BUTA      H2            -23.1130602185       11.2276931704      -11.2710066695  BUTA      37              0.0000000000
      3615       172  BUTA      H3            -23.1144038970        9.6667254702      -10.3527573385  BUTA      37              0.0000000000
      3616       172  BUTA      H4            -22.5593684917        9.3956198996      -12.8433310709  BUTA      37              0.0000000000
      3617       172  BUTA      H5            -21.2717606615        8.7900034137      -11.7658344642  BUTA      37              0.0000000000
      3618       172  BUTA      H6            -20.3183421851       10.0208411999      -13.6208995385  BUTA      37              0.0000000000
      3619       172  BUTA      H7            -19.9708706954       10.8480809322      -12.1058457465  BUTA      37              0.0000000000
      3620       172  BUTA      H8            -20.8580325695       12.7790757524      -11.7900034766  BUTA      37              0.0000000000
      3621       172  BUTA      H9            -22.3346599333       12.5971178418      -14.8479003977  BUTA      37              0.0000000000
      3622       172  BUTA      LPO11         -21.8169334674       11.4820437080      -14.6710247570  BUTA      37              0.0000000000
      3623       172  BUTA      LPO12         -22.0092274084       12.1102026974      -14.6375551751  BUTA      37              0.0000000000
      3624       172  BUTA      LPO21         -21.2673270569       12.7995929533      -12.2690976816  BUTA      37              0.0000000000
      3625       172  BUTA      LPO22         -21.5725983229       13.1574680971      -12.7288973381  BUTA      37              0.0000000000
      3626       173  BUTA      C1            -10.8645969323       11.3283044397       26.2490317147  BUTA      38              0.0000000000
      3627       173  BUTA      DC1           -10.8557905147       11.3171773981       26.2953380751  BUTA      38              0.0000000000
      3628       173  BUTA      C2            -11.0680378259       11.4132959326       27.7573800827  BUTA      38              0.0000000000
      3629       173  BUTA      DC2           -11.1223913177       11.4751381266       27.7721546678  BUTA      38              0.0000000000
      3630       173  BUTA      C3             -9.7702256146       11.1018601960       28.5381002692  BUTA      38              0.0000000000
      3631       173  BUTA      DC3            -9.7681078404       11.0795391077       28.5245340997  BUTA      38              0.0000000000
      3632       173  BUTA      C4             -9.1327647145        9.7427064809       28.3602669590  BUTA      38              0.0000000000
      3633       173  BUTA      DC4            -9.1337146311        9.7275018902       28.3688545554  BUTA      38              0.0000000000
      3634       173  BUTA      O1             -9.8086837256        8.7579710873       28.8145346891  BUTA      38              0.0000000000
      3635       173  BUTA      DO1            -9.8040611542        8.7435252677       28.8273123885  BUTA      38              0.0000000000
      3636       173  BUTA      O2             -7.8980157644        9.7373156095       28.0237839694  BUTA      38              0.0000000000
      3637       173  BUTA      DO2            -7.8924478329        9.7379232475       28.0377845599  BUTA      38              0.0000000000
      3638       173  BUTA      H1            -10.0976573995       12.0557668864       25.9070914523  BUTA      38              0.0000000000
      3639       173  BUTA      H2            -10.5129582758       10.3159211485       25.9561984386  BUTA      38              0.0000000000
      3640       173  BUTA      H3            -11.7993852808       11.5406898854       25.6874409689  BUTA      38              0.0000000000
      3641       173  BUTA      H4            -11.8486883381       10.6847478175       28.0641754897  BUTA      38              0.0000000000
      3642       173  BUTA      H5            -11.4257954310       12.4315004705       28.0211792814  BUTA      38              0.0000000000
      3643       173  BUTA      H6            -10.0266684541       11.2605738150       29.6073841689  BUTA      38              0.0000000000
      3644       173  BUTA      H7             -9.0719228017       11.9275671861       28.2833412695  BUTA      38              0.0000000000
      3645       173  BUTA      H8             -7.5456405976       10.6105007628       27.7950036602  BUTA      38              0.0000000000
      3646       173  BUTA      H9             -9.3744158330        7.8967513594       28.7214058659  BUTA      38              0.0000000000
      3647       173  BUTA      LPO11         -10.1078329771        8.8728852152       28.9552630393  BUTA      38              0.0000000000
      3648       173  BUTA      LPO12          -9.6361714912        8.4585615527       28.7589158111  BUTA      38              0.0000000000
      3649       173  BUTA      LPO21          -7.7809314711       10.0656994536       27.9928757303  BUTA      38              0.0000000000
      3650       173  BUTA      LPO22          -7.7841113830        9.4079232769       27.9917451943  BUTA      38              0.0000000000
      3651       174  BUTA      C1            -13.0855577464        7.9188915789       -9.6503221272  BUTA      39              0.0000000000
      3652       174  BUTA      DC1           -13.0513105048        7.9169881102       -9.6887002440  BUTA      39              0.0000000000
      3653       174  BUTA      C2            -14.4061070031        7.1818346479       -9.4844589749  BUTA      39              0.0000000000
      3654       174  BUTA      DC2           -14.3135195008        7.0800001581       -9.4821395268  BUTA      39              0.0000000000
      3655       174  BUTA      C3            -15.5265365843        7.8296575055      -10.3045656873  BUTA      39              0.0000000000
      3656       174  BUTA      DC3           -15.4442700673        7.8058009059      -10.2642266112  BUTA      39              0.0000000000
      3657       174  BUTA      C4            -15.9179871233        9.2022186649       -9.8720529816  BUTA      39              0.0000000000
      3658       174  BUTA      DC4           -15.9018239773        9.1719497962       -9.8696340359  BUTA      39              0.0000000000
      3659       174  BUTA      O1            -16.3286686259        9.2801689028       -8.6685289545  BUTA      39              0.0000000000
      3660       174  BUTA      DO1           -16.3303741647        9.2675181001       -8.6860351682  BUTA      39              0.0000000000
      3661       174  BUTA      O2            -15.6405517738       10.1344413438      -10.6912786827  BUTA      39              0.0000000000
      3662       174  BUTA      DO2           -15.6315067361       10.1094621858      -10.6843880671  BUTA      39              0.0000000000
      3663       174  BUTA      H1            -12.8122180738        7.9097756335      -10.7271337744  BUTA      39              0.0000000000
      3664       174  BUTA      H2            -13.2086960833        8.9763441977       -9.3325928259  BUTA      39              0.0000000000
      3665       174  BUTA      H3            -12.2659825434        7.4707530993       -9.0488328166  BUTA      39              0.0000000000
      3666       174  BUTA      H4            -14.7074294656        7.2036264567       -8.4153233928  BUTA      39              0.0000000000
      3667       174  BUTA      H5            -14.2885636864        6.1204656713       -9.7910539265  BUTA      39              0.0000000000
      3668       174  BUTA      H6            -16.4035096706        7.1489883330      -10.2606488822  BUTA      39              0.0000000000
      3669       174  BUTA      H7            -15.2067888632        7.8111115442      -11.3683976488  BUTA      39              0.0000000000
      3670       174  BUTA      H8            -15.2752640226        9.8314279632      -11.5360915317  BUTA      39              0.0000000000
      3671       174  BUTA      H9            -16.5348513764       10.1810207868       -8.3771262149  BUTA      39              0.0000000000
      3672       174  BUTA      LPO11         -16.3207184059        8.9639996089       -8.5186164081  BUTA      39              0.0000000000
      3673       174  BUTA      LPO12         -16.4137923284        9.6109862666       -8.5922804982  BUTA      39              0.0000000000
      3674       174  BUTA      LPO21         -15.4845586926       10.0018466900      -10.9751533318  BUTA      39              0.0000000000
      3675       174  BUTA      LPO22         -15.7443127321       10.4425434434      -10.5616377951  BUTA      39              0.0000000000
      3676       175  BUTA      C1             -6.9000037044       -4.4240044876        9.4054065775  BUTA      40              0.0000000000
      3677       175  BUTA      DC1            -6.8920458348       -4.4531094674        9.3742866224  BUTA      40              0.0000000000
      3678       175  BUTA      C2             -7.3707153446       -5.0063751570       10.7353686337  BUTA      40              0.0000000000
      3679       175  BUTA      DC2            -7.3612468201       -4.9282269747       10.7481930885  BUTA      40              0.0000000000
      3680       175  BUTA      C3             -6.7234095859       -6.3647584455       11.0654523372  BUTA      40              0.0000000000
      3681       175  BUTA      DC3            -6.7356732880       -6.3582819537       11.0039775378  BUTA      40              0.0000000000
      3682       175  BUTA      C4             -6.9511051017       -7.4843385473       10.0916391632  BUTA      40              0.0000000000
      3683       175  BUTA      DC4            -7.0011976532       -7.4893078917       10.0691362615  BUTA      40              0.0000000000
      3684       175  BUTA      O1             -8.1521239182       -7.6681460697        9.6770601134  BUTA      40              0.0000000000
      3685       175  BUTA      DO1            -8.1933735419       -7.6732416028        9.6411251503  BUTA      40              0.0000000000
      3686       175  BUTA      O2             -5.8860842401       -7.9710261230        9.5888449648  BUTA      40              0.0000000000
      3687       175  BUTA      DO2            -5.9015302192       -7.9560903445        9.5979973016  BUTA      40              0.0000000000
      3688       175  BUTA      H1             -5.8064404567       -4.2281287485        9.4139575138  BUTA      40              0.0000000000
      3689       175  BUTA      H2             -7.0769054666       -5.1551397291        8.5878076384  BUTA      40              0.0000000000
      3690       175  BUTA      H3             -7.4225006766       -3.4697079269        9.1803821581  BUTA      40              0.0000000000
      3691       175  BUTA      H4             -8.4721210616       -5.1487933986       10.7046523324  BUTA      40              0.0000000000
      3692       175  BUTA      H5             -7.1621879970       -4.2910660813       11.5594865088  BUTA      40              0.0000000000
      3693       175  BUTA      H6             -7.0562164477       -6.6477373181       12.0869627640  BUTA      40              0.0000000000
      3694       175  BUTA      H7             -5.6437168213       -6.1348469230       11.1908526002  BUTA      40              0.0000000000
      3695       175  BUTA      H8             -5.0699701695       -7.5382091814        9.8813997781  BUTA      40              0.0000000000
      3696       175  BUTA      H9             -8.2499414865       -8.4377169817        9.0964110500  BUTA      40              0.0000000000
      3697       175  BUTA      LPO11          -8.3665864912       -7.4336069328        9.8236793415  BUTA      40              0.0000000000
      3698       175  BUTA      LPO12          -8.1616400914       -7.9369635858        9.4531257804  BUTA      40              0.0000000000
      3699       175  BUTA      LPO21          -5.6062224133       -7.8044111071        9.7169730037  BUTA      40              0.0000000000
      3700       175  BUTA      LPO22          -5.9658570029       -8.2290767764        9.3662552827  BUTA      40              0.0000000000
      3701       176  BUTA      C1            -20.4457180394       16.3561988460       16.7784675068  BUTA      41              0.0000000000
      3702       176  BUTA      DC1           -20.4536264268       16.4022121625       16.7861026474  BUTA      41              0.0000000000
      3703       176  BUTA      C2            -21.6152711042       17.3043676934       16.9478411009  BUTA      41              0.0000000000
      3704       176  BUTA      DC2           -21.6406324971       17.3355411745       16.8525879414  BUTA      41              0.0000000000
      3705       176  BUTA      C3            -21.3519274921       18.2866479970       18.0993324005  BUTA      41              0.0000000000
      3706       176  BUTA      DC3           -21.3528919342       18.2749101675       18.0990529403  BUTA      41              0.0000000000
      3707       176  BUTA      C4            -21.0919241780       17.6855176874       19.4606138048  BUTA      41              0.0000000000
      3708       176  BUTA      DC4           -21.0966845326       17.6954575430       19.4571457144  BUTA      41              0.0000000000
      3709       176  BUTA      O1            -22.0948900357       17.0944855655       19.9786816899  BUTA      41              0.0000000000
      3710       176  BUTA      DO1           -22.0992129915       17.1248585934       19.9808530560  BUTA      41              0.0000000000
      3711       176  BUTA      O2            -20.0633570862       18.1405522124       20.0669975163  BUTA      41              0.0000000000
      3712       176  BUTA      DO2           -20.0754720261       18.1516787985       20.0733882911  BUTA      41              0.0000000000
      3713       176  BUTA      H1            -19.4877330512       16.9061496865       16.6595564653  BUTA      41              0.0000000000
      3714       176  BUTA      H2            -20.3426407815       15.6931666996       17.6639529396  BUTA      41              0.0000000000
      3715       176  BUTA      H3            -20.5938071423       15.7152350513       15.8831708897  BUTA      41              0.0000000000
      3716       176  BUTA      H4            -22.5283112074       16.7134492836       17.1747644457  BUTA      41              0.0000000000
      3717       176  BUTA      H5            -21.7800603887       17.8538470436       15.9964011726  BUTA      41              0.0000000000
      3718       176  BUTA      H6            -22.2447283854       18.9470833548       18.1317777886  BUTA      41              0.0000000000
      3719       176  BUTA      H7            -20.5163579790       18.9361456386       17.7612534090  BUTA      41              0.0000000000
      3720       176  BUTA      H8            -19.4831583503       18.6806932825       19.5097022163  BUTA      41              0.0000000000
      3721       176  BUTA      H9            -21.9342249845       16.7265457174       20.8605932555  BUTA      41              0.0000000000
      3722       176  BUTA      LPO11         -22.3695918151       17.1131631536       19.7626028152  BUTA      41              0.0000000000
      3723       176  BUTA      LPO12         -22.0086352247       16.9647591208       20.2921001915  BUTA      41              0.0000000000
      3724       176  BUTA      LPO21         -19.9053994241       18.3826347726       19.8696515990  BUTA      41              0.0000000000
      3725       176  BUTA      LPO22         -20.0285941635       17.9837285725       20.3779603520  BUTA      41              0.0000000000
      3726       177  BUTA      C1             -1.6614258217       15.1264926146      -16.7966373638  BUTA      42              0.0000000000
      3727       177  BUTA      DC1            -1.6715405171       15.1166406166      -16.8329934287  BUTA      42              0.0000000000
      3728       177  BUTA      C2             -2.4727915200       13.9192827166      -16.3394979575  BUTA      42              0.0000000000
      3729       177  BUTA      DC2            -2.4086552768       13.8727358520      -16.3553364564  BUTA      42              0.0000000000
      3730       177  BUTA      C3             -3.8918883004       13.9096705513      -16.9318428086  BUTA      42              0.0000000000
      3731       177  BUTA      DC3            -3.8811492667       13.9316011247      -16.9346927468  BUTA      42              0.0000000000
      3732       177  BUTA      C4             -4.7785822005       15.0046132913      -16.4560721750  BUTA      42              0.0000000000
      3733       177  BUTA      DC4            -4.7760560438       14.9980170244      -16.4539483689  BUTA      42              0.0000000000
      3734       177  BUTA      O1             -5.3012830061       14.8393672542      -15.3071001470  BUTA      42              0.0000000000
      3735       177  BUTA      DO1            -5.3031980679       14.8403214946      -15.3161872633  BUTA      42              0.0000000000
      3736       177  BUTA      O2             -5.0974876737       15.8599442330      -17.3440161676  BUTA      42              0.0000000000
      3737       177  BUTA      DO2            -5.1109204895       15.8367770543      -17.3473760003  BUTA      42              0.0000000000
      3738       177  BUTA      H1             -1.5553460375       15.1498797255      -17.9023141356  BUTA      42              0.0000000000
      3739       177  BUTA      H2             -2.1775752851       16.0640328854      -16.4984277523  BUTA      42              0.0000000000
      3740       177  BUTA      H3             -0.6545772484       15.1293530374      -16.3269898700  BUTA      42              0.0000000000
      3741       177  BUTA      H4             -2.5655180568       13.9334702467      -15.2324652103  BUTA      42              0.0000000000
      3742       177  BUTA      H5             -1.9198472509       12.9877416823      -16.5860845289  BUTA      42              0.0000000000
      3743       177  BUTA      H6             -4.3196901764       12.9053509173      -16.7253273612  BUTA      42              0.0000000000
      3744       177  BUTA      H7             -3.7728268977       13.9643782110      -18.0350891339  BUTA      42              0.0000000000
      3745       177  BUTA      H8             -4.7314285846       15.6781606449      -18.2226039380  BUTA      42              0.0000000000
      3746       177  BUTA      H9             -5.8827974331       15.5595495565      -15.0205003868  BUTA      42              0.0000000000
      3747       177  BUTA      LPO11          -5.1980855924       14.5336565317      -15.1714858117  BUTA      42              0.0000000000
      3748       177  BUTA      LPO12          -5.5027812210       15.1140012734      -15.2266350932  BUTA      42              0.0000000000
      3749       177  BUTA      LPO21          -4.9494951966       15.7758646057      -17.6498410243  BUTA      42              0.0000000000
      3750       177  BUTA      LPO22          -5.3054346231       16.1048267299      -17.2051254590  BUTA      42              0.0000000000
      3751       178  BUTA      C1             15.5570268179       25.8770039248       17.9511656874  BUTA      43              0.0000000000
      3752       178  BUTA      DC1            15.5568611768       25.9194218498       17.9889880754  BUTA      43              0.0000000000
      3753       178  BUTA      C2             16.3702205808       26.9856677214       18.5818415698  BUTA      43              0.0000000000
      3754       178  BUTA      DC2            16.4159073714       26.9509098046       18.6532389604  BUTA      43              0.0000000000
      3755       178  BUTA      C3             15.4751462386       28.1359293766       19.0801567676  BUTA      43              0.0000000000
      3756       178  BUTA      DC3            15.4549597302       28.1295503467       19.0864189310  BUTA      43              0.0000000000
      3757       178  BUTA      C4             14.6425028733       28.9088080157       18.0781533643  BUTA      43              0.0000000000
      3758       178  BUTA      DC4            14.6541146068       28.9183755786       18.0761409330  BUTA      43              0.0000000000
      3759       178  BUTA      O1             15.2892031024       29.6362377513       17.2492914954  BUTA      43              0.0000000000
      3760       178  BUTA      DO1            15.2872760291       29.6485345763       17.2520084579  BUTA      43              0.0000000000
      3761       178  BUTA      O2             13.4227699050       29.0421498250       18.4280576945  BUTA      43              0.0000000000
      3762       178  BUTA      DO2            13.4460605939       29.0536496686       18.4487570191  BUTA      43              0.0000000000
      3763       178  BUTA      H1             14.9267854346       25.3779219104       18.7179993997  BUTA      43              0.0000000000
      3764       178  BUTA      H2             14.8893646858       26.3042402661       17.1726945023  BUTA      43              0.0000000000
      3765       178  BUTA      H3             16.1879303027       25.1021347082       17.4655120130  BUTA      43              0.0000000000
      3766       178  BUTA      H4             17.0716297714       27.3873656292       17.8196178895  BUTA      43              0.0000000000
      3767       178  BUTA      H5             16.9756815716       26.5589718026       19.4098926440  BUTA      43              0.0000000000
      3768       178  BUTA      H6             16.1809176064       28.8319162676       19.5819635281  BUTA      43              0.0000000000
      3769       178  BUTA      H7             14.8495819790       27.6997308458       19.8880683956  BUTA      43              0.0000000000
      3770       178  BUTA      H8             13.1561645193       28.4962450049       19.1829553668  BUTA      43              0.0000000000
      3771       178  BUTA      H9             14.7306977283       30.1307195669       16.6308090937  BUTA      43              0.0000000000
      3772       178  BUTA      LPO11          15.6329739899       29.6093548476       17.3092822146  BUTA      43              0.0000000000
      3773       178  BUTA      LPO12          15.0665408926       29.7993476881       17.0340783711  BUTA      43              0.0000000000
      3774       178  BUTA      LPO21          13.3691848318       28.8866799974       18.7370201074  BUTA      43              0.0000000000
      3775       178  BUTA      LPO22          13.2474831124       29.2226400379       18.1847516661  BUTA      43              0.0000000000
      3776       179  BUTA      C1            -25.3590093962        0.4621182909      -17.2848174517  BUTA      44              0.0000000000
      3777       179  BUTA      DC1           -25.3497431141        0.4480960044      -17.3100423866  BUTA      44              0.0000000000
      3778       179  BUTA      C2            -26.4511413921       -0.3505664361      -17.9746512184  BUTA      44              0.0000000000
      3779       179  BUTA      DC2           -26.4437900338       -0.4245127739      -17.9115558026  BUTA      44              0.0000000000
      3780       179  BUTA      C3            -26.4676263200       -0.1228369416      -19.4969535706  BUTA      44              0.0000000000
      3781       179  BUTA      DC3           -26.4583691111       -0.0994930998      -19.4640423075  BUTA      44              0.0000000000
      3782       179  BUTA      C4            -26.6266532324        1.3096455765      -19.9089943947  BUTA      44              0.0000000000
      3783       179  BUTA      DC4           -26.6080981721        1.3109255087      -19.9128642111  BUTA      44              0.0000000000
      3784       179  BUTA      O1            -27.8019018035        1.7854877985      -19.7738795609  BUTA      44              0.0000000000
      3785       179  BUTA      DO1           -27.7873264192        1.7716339272      -19.7787105142  BUTA      44              0.0000000000
      3786       179  BUTA      O2            -25.5907387268        1.8583549604      -20.4197718111  BUTA      44              0.0000000000
      3787       179  BUTA      DO2           -25.5715411259        1.8558251357      -20.4325286369  BUTA      44              0.0000000000
      3788       179  BUTA      H1            -24.3547014595        0.1933939731      -17.6765747853  BUTA      44              0.0000000000
      3789       179  BUTA      H2            -25.5104061735        1.5468270270      -17.4713837171  BUTA      44              0.0000000000
      3790       179  BUTA      H3            -25.3675744714        0.3048374119      -16.1850400360  BUTA      44              0.0000000000
      3791       179  BUTA      H4            -27.4383178066       -0.0404084780      -17.5701691175  BUTA      44              0.0000000000
      3792       179  BUTA      H5            -26.3212700228       -1.4329054609      -17.7601828923  BUTA      44              0.0000000000
      3793       179  BUTA      H6            -27.2859283842       -0.7556071561      -19.9022985953  BUTA      44              0.0000000000
      3794       179  BUTA      H7            -25.5323134676       -0.5740935193      -19.8917679183  BUTA      44              0.0000000000
      3795       179  BUTA      H8            -24.8349585659        1.2620205170      -20.5299651869  BUTA      44              0.0000000000
      3796       179  BUTA      H9            -27.9017151545        2.7120968180      -20.0391982748  BUTA      44              0.0000000000
      3797       179  BUTA      LPO11         -28.0161186932        1.5405712963      -19.6449337154  BUTA      44              0.0000000000
      3798       179  BUTA      LPO12         -27.8083500573        2.1197486274      -19.8774561910  BUTA      44              0.0000000000
      3799       179  BUTA      LPO21         -25.3267088175        1.6288496364      -20.4305195208  BUTA      44              0.0000000000
      3800       179  BUTA      LPO22         -25.6608130818        2.1905958211      -20.5046575889  BUTA      44              0.0000000000
      3801       180  BUTA      C1            -10.6855881357        1.7644257442       -6.9574829882  BUTA      45              0.0000000000
      3802       180  BUTA      DC1           -10.7105997698        1.7205428092       -6.9870508603  BUTA      45              0.0000000000
      3803       180  BUTA      C2            -10.7983016885        0.4416632791       -7.6977888366  BUTA      45              0.0000000000
      3804       180  BUTA      DC2           -10.7307061082        0.4213388598       -7.7326240908  BUTA      45              0.0000000000
      3805       180  BUTA      C3            -12.1907886137        0.3057149365       -8.3421276319  BUTA      45              0.0000000000
      3806       180  BUTA      DC3           -12.2159367262        0.3110193261       -8.3170877976  BUTA      45              0.0000000000
      3807       180  BUTA      C4            -13.4373517329        0.2749949268       -7.4883858411  BUTA      45              0.0000000000
      3808       180  BUTA      DC4           -13.5060350364        0.3194415522       -7.5333719965  BUTA      45              0.0000000000
      3809       180  BUTA      O1            -13.4132480947       -0.5703038973       -6.5400004391  BUTA      45              0.0000000000
      3810       180  BUTA      DO1           -13.4059701664       -0.5388476115       -6.5864126063  BUTA      45              0.0000000000
      3811       180  BUTA      O2            -14.4576251157        0.9009304262       -7.9476495411  BUTA      45              0.0000000000
      3812       180  BUTA      DO2           -14.5517804979        0.9111894422       -7.9858990742  BUTA      45              0.0000000000
      3813       180  BUTA      H1            -10.8591582595        2.6221942959       -7.6419006426  BUTA      45              0.0000000000
      3814       180  BUTA      H2            -11.4505606954        1.8356168578       -6.1549433884  BUTA      45              0.0000000000
      3815       180  BUTA      H3             -9.6843274975        1.9038808928       -6.4966680622  BUTA      45              0.0000000000
      3816       180  BUTA      H4            -10.6390056476       -0.4110670705       -7.0036730517  BUTA      45              0.0000000000
      3817       180  BUTA      H5            -10.0128118340        0.3953013259       -8.4821212009  BUTA      45              0.0000000000
      3818       180  BUTA      H6            -12.1317904338       -0.6095058025       -8.9691931911  BUTA      45              0.0000000000
      3819       180  BUTA      H7            -12.2099433495        1.1715952857       -9.0379762627  BUTA      45              0.0000000000
      3820       180  BUTA      H8            -14.2583888908        1.4779531862       -8.7001856938  BUTA      45              0.0000000000
      3821       180  BUTA      H9            -14.2485894464       -0.6586937754       -6.0569341326  BUTA      45              0.0000000000
      3822       180  BUTA      LPO11         -13.1092225310       -0.7436961999       -6.5418888335  BUTA      45              0.0000000000
      3823       180  BUTA      LPO12         -13.7127320769       -0.5561818895       -6.3594182879  BUTA      45              0.0000000000
      3824       180  BUTA      LPO21         -14.3798353530        1.0464373459       -8.2563184400  BUTA      45              0.0000000000
      3825       180  BUTA      LPO22         -14.7259425903        0.8723118431       -7.7247443830  BUTA      45              0.0000000000
      3826       181  BUTA      C1             -3.7756761002        6.8182633349       -8.4908351523  BUTA      46              0.0000000000
      3827       181  BUTA      DC1            -3.7747847658        6.7814420857       -8.5209663546  BUTA      46              0.0000000000
      3828       181  BUTA      C2             -3.2816677778        8.2552311542       -8.4633078695  BUTA      46              0.0000000000
      3829       181  BUTA      DC2            -3.3375493513        8.2301365052       -8.4154769461  BUTA      46              0.0000000000
      3830       181  BUTA      C3             -2.7447570460        8.8008256774       -9.8010080380  BUTA      46              0.0000000000
      3831       181  BUTA      DC3            -2.6978450857        8.7144733743       -9.8020959919  BUTA      46              0.0000000000
      3832       181  BUTA      C4             -1.6198591785        8.0173688945      -10.3708712804  BUTA      46              0.0000000000
      3833       181  BUTA      DC4            -1.6277877655        7.9542020462      -10.4611947859  BUTA      46              0.0000000000
      3834       181  BUTA      O1             -0.5125634283        8.0326034087       -9.7362542661  BUTA      46              0.0000000000
      3835       181  BUTA      DO1            -0.5472676814        8.0298996533       -9.7481685467  BUTA      46              0.0000000000
      3836       181  BUTA      O2             -1.8519113195        7.4623150003      -11.4888145792  BUTA      46              0.0000000000
      3837       181  BUTA      DO2            -1.8655936207        7.4699575169      -11.6160011040  BUTA      46              0.0000000000
      3838       181  BUTA      H1             -4.6396028538        6.7151379914       -9.1817162774  BUTA      46              0.0000000000
      3839       181  BUTA      H2             -2.9584065621        6.1478180216       -8.8327336525  BUTA      46              0.0000000000
      3840       181  BUTA      H3             -4.0953620111        6.4983765370       -7.4760473142  BUTA      46              0.0000000000
      3841       181  BUTA      H4             -2.4259492815        8.3179218325       -7.7575198462  BUTA      46              0.0000000000
      3842       181  BUTA      H5             -4.0848328710        8.9193886890       -8.0784161908  BUTA      46              0.0000000000
      3843       181  BUTA      H6             -2.4441899248        9.8515673733       -9.6012023973  BUTA      46              0.0000000000
      3844       181  BUTA      H7             -3.6222943951        8.9001470387      -10.4750884994  BUTA      46              0.0000000000
      3845       181  BUTA      H8             -2.7534044276        7.5922150261      -11.8195669933  BUTA      46              0.0000000000
      3846       181  BUTA      H9              0.2077297953        7.5507633342      -10.1698079705  BUTA      46              0.0000000000
      3847       181  BUTA      LPO11          -0.5415104367        8.2315675466       -9.4497663213  BUTA      46              0.0000000000
      3848       181  BUTA      LPO12          -0.2759133789        7.8364969128       -9.9037027549  BUTA      46              0.0000000000
      3849       181  BUTA      LPO21          -2.1785142830        7.5337164616      -11.5924115655  BUTA      46              0.0000000000
      3850       181  BUTA      LPO22          -1.5690695465        7.2862395677      -11.5960431828  BUTA      46              0.0000000000
      3851       182  BUTA      C1             27.0021298989       -6.5987859734       -0.0568675351  BUTA      47              0.0000000000
      3852       182  BUTA      DC1            26.9624947313       -6.5658753035       -0.0801485114  BUTA      47              0.0000000000
      3853       182  BUTA      C2             25.8841485161       -5.5572320077       -0.0056806037  BUTA      47              0.0000000000
      3854       182  BUTA      DC2            25.7929889990       -5.6222484653       -0.0212317872  BUTA      47              0.0000000000
      3855       182  BUTA      C3             26.3075101062       -4.2192249903       -0.6131610033  BUTA      47              0.0000000000
      3856       182  BUTA      DC3            26.3121447935       -4.2467105441       -0.6026777361  BUTA      47              0.0000000000
      3857       182  BUTA      C4             27.4305584335       -3.6129193880        0.1316445598  BUTA      47              0.0000000000
      3858       182  BUTA      DC4            27.3688532239       -3.6057379019        0.1976593251  BUTA      47              0.0000000000
      3859       182  BUTA      O1             27.1251365713       -3.2020261439        1.2983625286  BUTA      47              0.0000000000
      3860       182  BUTA      DO1            27.1039585427       -3.1853395107        1.3556689878  BUTA      47              0.0000000000
      3861       182  BUTA      O2             28.5189153621       -3.5196818732       -0.4975431721  BUTA      47              0.0000000000
      3862       182  BUTA      DO2            28.4385766195       -3.5260525324       -0.4745627068  BUTA      47              0.0000000000
      3863       182  BUTA      H1             27.3451841355       -6.7782141546       -1.0982321785  BUTA      47              0.0000000000
      3864       182  BUTA      H2             27.8925441873       -6.2503261366        0.5088701585  BUTA      47              0.0000000000
      3865       182  BUTA      H3             26.7018144735       -7.5711158798        0.3888971992  BUTA      47              0.0000000000
      3866       182  BUTA      H4             25.5783540529       -5.3871971601        1.0487855642  BUTA      47              0.0000000000
      3867       182  BUTA      H5             24.9752595564       -5.9008141909       -0.5443763828  BUTA      47              0.0000000000
      3868       182  BUTA      H6             25.4179420438       -3.5536716141       -0.6184869509  BUTA      47              0.0000000000
      3869       182  BUTA      H7             26.5484049819       -4.4109373273       -1.6806520052  BUTA      47              0.0000000000
      3870       182  BUTA      H8             28.4885363166       -3.8512354000       -1.4075488712  BUTA      47              0.0000000000
      3871       182  BUTA      H9             27.8616183385       -2.8042819871        1.7865788681  BUTA      47              0.0000000000
      3872       182  BUTA      LPO11          26.7865448549       -3.2635831350        1.3621307529  BUTA      47              0.0000000000
      3873       182  BUTA      LPO12          27.4063372313       -3.0632592334        1.4538293526  BUTA      47              0.0000000000
      3874       182  BUTA      LPO21          28.4818323695       -3.6489416506       -0.8206789974  BUTA      47              0.0000000000
      3875       182  BUTA      LPO22          28.7627012949       -3.3727142391       -0.2939039482  BUTA      47              0.0000000000
      3876       183  BUTA      C1            -26.2613168689       18.3403462556       21.6945827623  BUTA      48              0.0000000000
      3877       183  BUTA      DC1           -26.3176792542       18.3860749665       21.7076786254  BUTA      48              0.0000000000
      3878       183  BUTA      C2            -24.8320662665       18.1877911143       21.1881648122  BUTA      48              0.0000000000
      3879       183  BUTA      DC2           -24.8757826809       18.2025935295       21.2878377383  BUTA      48              0.0000000000
      3880       183  BUTA      C3            -24.4387858273       19.3123025614       20.2027908562  BUTA      48              0.0000000000
      3881       183  BUTA      DC3           -24.5171757340       19.3270897438       20.2000703584  BUTA      48              0.0000000000
      3882       183  BUTA      C4            -25.2508746956       19.4247889317       18.9464428309  BUTA      48              0.0000000000
      3883       183  BUTA      DC4           -25.2965800370       19.5045305594       18.9409080442  BUTA      48              0.0000000000
      3884       183  BUTA      O1            -25.3328948865       18.3961013728       18.2051422326  BUTA      48              0.0000000000
      3885       183  BUTA      DO1           -25.3334598660       18.4461433319       18.2293329378  BUTA      48              0.0000000000
      3886       183  BUTA      O2            -25.9648729315       20.4863327241       18.8820337368  BUTA      48              0.0000000000
      3887       183  BUTA      DO2           -26.0162195252       20.5502218608       18.9031203542  BUTA      48              0.0000000000
      3888       183  BUTA      H1            -26.4019851573       19.3248184946       22.1899087594  BUTA      48              0.0000000000
      3889       183  BUTA      H2            -26.9586593947       18.2791372983       20.8318615636  BUTA      48              0.0000000000
      3890       183  BUTA      H3            -26.5130019661       17.5292723208       22.4109169613  BUTA      48              0.0000000000
      3891       183  BUTA      H4            -24.7132214431       17.2151300388       20.6645930964  BUTA      48              0.0000000000
      3892       183  BUTA      H5            -24.1082345260       18.1595210648       22.0305361173  BUTA      48              0.0000000000
      3893       183  BUTA      H6            -23.3607488931       19.1684988066       19.9759035527  BUTA      48              0.0000000000
      3894       183  BUTA      H7            -24.4547183954       20.2485623343       20.8006911753  BUTA      48              0.0000000000
      3895       183  BUTA      H8            -25.7765645402       21.1318290364       19.5797696901  BUTA      48              0.0000000000
      3896       183  BUTA      H9            -25.8182976551       18.5145002104       17.3748851233  BUTA      48              0.0000000000
      3897       183  BUTA      LPO11         -25.1508623769       18.1323407918       18.3458352364  BUTA      48              0.0000000000
      3898       183  BUTA      LPO12         -25.5303820020       18.4660321101       17.9247701027  BUTA      48              0.0000000000
      3899       183  BUTA      LPO21         -25.9182225925       20.6796339358       19.1700587139  BUTA      48              0.0000000000
      3900       183  BUTA      LPO22         -26.1449727114       20.4914387611       18.5819704140  BUTA      48              0.0000000000
      3901       184  BUTA      C1             27.3929513656      -10.8049944669       16.2523870277  BUTA      49              0.0000000000
      3902       184  BUTA      DC1            27.3666082909      -10.8043191835       16.2738251987  BUTA      49              0.0000000000
      3903       184  BUTA      C2             28.6121415061      -10.3615377825       17.0579616096  BUTA      49              0.0000000000
      3904       184  BUTA      DC2            28.6201929987      -10.4524458273       17.0926760536  BUTA      49              0.0000000000
      3905       184  BUTA      C3             28.4235050898       -8.9485953817       17.6380788041  BUTA      49              0.0000000000
      3906       184  BUTA      DC3            28.4119902042       -8.9673659083       17.6084068715  BUTA      49              0.0000000000
      3907       184  BUTA      C4             28.0465926283       -7.9150378785       16.6272588341  BUTA      49              0.0000000000
      3908       184  BUTA      DC4            28.0513304599       -7.9214412122       16.6349814197  BUTA      49              0.0000000000
      3909       184  BUTA      O1             28.8679792015       -7.7899756583       15.6680401221  BUTA      49              0.0000000000
      3910       184  BUTA      DO1            28.8662595800       -7.7869150357       15.6854294862  BUTA      49              0.0000000000
      3911       184  BUTA      O2             26.9732234503       -7.2671231385       16.8517138652  BUTA      49              0.0000000000
      3912       184  BUTA      DO2            26.9827046135       -7.2719462452       16.8628625131  BUTA      49              0.0000000000
      3913       184  BUTA      H1             26.4738402896      -10.7724264314       16.8756808217  BUTA      49              0.0000000000
      3914       184  BUTA      H2             27.2407548069      -10.1096543221       15.3993575496  BUTA      49              0.0000000000
      3915       184  BUTA      H3             27.5264946801      -11.8252062520       15.8332747534  BUTA      49              0.0000000000
      3916       184  BUTA      H4             29.4963418635      -10.3465824498       16.3854386985  BUTA      49              0.0000000000
      3917       184  BUTA      H5             28.8194899955      -11.0797084963       17.8798852255  BUTA      49              0.0000000000
      3918       184  BUTA      H6             29.3686406459       -8.6853680382       18.1593763658  BUTA      49              0.0000000000
      3919       184  BUTA      H7             27.6608151214       -9.0419271471       18.4405214461  BUTA      49              0.0000000000
      3920       184  BUTA      H8             26.5188197152       -7.5130750150       17.6714613385  BUTA      49              0.0000000000
      3921       184  BUTA      H9             28.6659217203       -7.0778114331       15.0427754656  BUTA      49              0.0000000000
      3922       184  BUTA      LPO11          29.1341854972       -8.0135813203       15.7084717443  BUTA      49              0.0000000000
      3923       184  BUTA      LPO12          28.7567359542       -7.5427757186       15.4466419971  BUTA      49              0.0000000000
      3924       184  BUTA      LPO21          26.8271745803       -7.3771385338       17.1501537090  BUTA      49              0.0000000000
      3925       184  BUTA      LPO22          26.9175128473       -7.0353202546       16.5954644716  BUTA      49              0.0000000000
      3926       185  BUTA      C1            -11.5545591422      -26.4163715632       26.0378646359  BUTA      50              0.0000000000
      3927       185  BUTA      DC1           -11.5475475224      -26.4028841240       26.0435962752  BUTA      50              0.0000000000
      3928       185  BUTA      C2            -11.4288891864      -26.7881640126       27.5141365709  BUTA      50              0.0000000000
      3929       185  BUTA      DC2           -11.5236507192      -26.7606316729       27.5270028320  BUTA      50              0.0000000000
      3930       185  BUTA      C3            -10.0235780098      -26.5048879105       28.0759651214  BUTA      50              0.0000000000
      3931       185  BUTA      DC3           -10.0456718239      -26.5108973794       28.0455450359  BUTA      50              0.0000000000
      3932       185  BUTA      C4             -8.9056622903      -27.2334717461       27.4015907384  BUTA      50              0.0000000000
      3933       185  BUTA      DC4            -8.9181447016      -27.2262542742       27.4071550160  BUTA      50              0.0000000000
      3934       185  BUTA      O1             -8.8919960421      -28.4944793285       27.5748568474  BUTA      50              0.0000000000
      3935       185  BUTA      DO1            -8.8903083872      -28.4765565616       27.5778528459  BUTA      50              0.0000000000
      3936       185  BUTA      O2             -8.0207141518      -26.5033681430       26.8523507084  BUTA      50              0.0000000000
      3937       185  BUTA      DO2            -8.0241183220      -26.5099537089       26.8722232392  BUTA      50              0.0000000000
      3938       185  BUTA      H1            -11.3453110293      -25.3367879601       25.8796386273  BUTA      50              0.0000000000
      3939       185  BUTA      H2            -10.8145947731      -26.9876821222       25.4375497377  BUTA      50              0.0000000000
      3940       185  BUTA      H3            -12.5674461207      -26.6464306594       25.6435883609  BUTA      50              0.0000000000
      3941       185  BUTA      H4            -11.6276768111      -27.8750311584       27.6304305443  BUTA      50              0.0000000000
      3942       185  BUTA      H5            -12.1839236559      -26.2336749306       28.1114520720  BUTA      50              0.0000000000
      3943       185  BUTA      H6            -10.0568875176      -26.7660195566       29.1553268502  BUTA      50              0.0000000000
      3944       185  BUTA      H7             -9.8902966946      -25.4022425731       28.0489400787  BUTA      50              0.0000000000
      3945       185  BUTA      H8             -8.1968267903      -25.5518038903       26.9020579730  BUTA      50              0.0000000000
      3946       185  BUTA      H9             -8.1528247433      -28.9485122996       27.1430688753  BUTA      50              0.0000000000
      3947       185  BUTA      LPO11          -9.1613289479      -28.5905036698       27.7766961690  BUTA      50              0.0000000000
      3948       185  BUTA      LPO12          -8.6200927709      -28.6356269073       27.4056056374  BUTA      50              0.0000000000
      3949       185  BUTA      LPO21          -8.0999498339      -26.1653618350       26.8967741537  BUTA      50              0.0000000000
      3950       185  BUTA      LPO22          -7.7749077969      -26.7039496198       26.7045457456  BUTA      50              0.0000000000
      3951       186  BUTA      C1            -11.6277037643       19.5699123695       -7.4186302830  BUTA      51              0.0000000000
      3952       186  BUTA      DC1           -11.6225349673       19.5937502626       -7.4552096243  BUTA      51              0.0000000000
      3953       186  BUTA      C2            -12.2782509837       18.2021603948       -7.3256623697  BUTA      51              0.0000000000
      3954       186  BUTA      DC2           -12.2184783376       18.2119012940       -7.3239709504  BUTA      51              0.0000000000
      3955       186  BUTA      C3            -13.3283075457       17.9721166964       -8.4326205194  BUTA      51              0.0000000000
      3956       186  BUTA      DC3           -13.3391046101       18.0085079937       -8.4375148990  BUTA      51              0.0000000000
      3957       186  BUTA      C4            -14.4990435149       18.9062569608       -8.5114894599  BUTA      51              0.0000000000
      3958       186  BUTA      DC4           -14.5027780585       18.9239940350       -8.5326826524  BUTA      51              0.0000000000
      3959       186  BUTA      O1            -15.4416232198       18.6842100870       -7.6860315793  BUTA      51              0.0000000000
      3960       186  BUTA      DO1           -15.4329284451       18.6702929041       -7.7000669188  BUTA      51              0.0000000000
      3961       186  BUTA      O2            -14.5330278165       19.6483715627       -9.5497341025  BUTA      51              0.0000000000
      3962       186  BUTA      DO2           -14.5246357419       19.6710015397       -9.5716132200  BUTA      51              0.0000000000
      3963       186  BUTA      H1            -11.1333625388       19.7286208748       -8.4008519301  BUTA      51              0.0000000000
      3964       186  BUTA      H2            -12.4143997828       20.3484510318       -7.3221526812  BUTA      51              0.0000000000
      3965       186  BUTA      H3            -10.8669164933       19.6974382205       -6.6190923629  BUTA      51              0.0000000000
      3966       186  BUTA      H4            -12.7640916752       18.0773851344       -6.3343445811  BUTA      51              0.0000000000
      3967       186  BUTA      H5            -11.4905694964       17.4217797940       -7.3955550907  BUTA      51              0.0000000000
      3968       186  BUTA      H6            -13.6642184298       16.9221590271       -8.2945126899  BUTA      51              0.0000000000
      3969       186  BUTA      H7            -12.7494748654       17.9628834780       -9.3808760102  BUTA      51              0.0000000000
      3970       186  BUTA      H8            -13.7573765311       19.5707946638      -10.1253276294  BUTA      51              0.0000000000
      3971       186  BUTA      H9            -16.1682969500       19.3244681917       -7.7172701658  BUTA      51              0.0000000000
      3972       186  BUTA      LPO11         -15.3629542552       18.4080118524       -7.4859672666  BUTA      51              0.0000000000
      3973       186  BUTA      LPO12         -15.6976397929       18.9186299109       -7.7307849085  BUTA      51              0.0000000000
      3974       186  BUTA      LPO21         -14.2566271917       19.5815038141       -9.7537718412  BUTA      51              0.0000000000
      3975       186  BUTA      LPO22         -14.8158016107       19.8544101001       -9.5404012320  BUTA      51              0.0000000000
      3976       187  BUTA      C1             13.0271196564       -7.3593234862        0.2446997443  BUTA      52              0.0000000000
      3977       187  BUTA      DC1            13.0463693179       -7.3414937063        0.2411285196  BUTA      52              0.0000000000
      3978       187  BUTA      C2             14.3284032167       -6.7925676673       -0.3177188113  BUTA      52              0.0000000000
      3979       187  BUTA      DC2            14.3662952507       -6.8766074845       -0.3060640486  BUTA      52              0.0000000000
      3980       187  BUTA      C3             14.6099879208       -5.3530062381        0.1658552169  BUTA      52              0.0000000000
      3981       187  BUTA      DC3            14.5531765923       -5.3664414110        0.1517923131  BUTA      52              0.0000000000
      3982       187  BUTA      C4             13.5732460163       -4.3322880793       -0.1826524344  BUTA      52              0.0000000000
      3983       187  BUTA      DC4            13.5667884933       -4.3331380743       -0.2578084745  BUTA      52              0.0000000000
      3984       187  BUTA      O1             13.3495348545       -4.2132455911       -1.4292609313  BUTA      52              0.0000000000
      3985       187  BUTA      DO1            13.2970668577       -4.2305358496       -1.4799130985  BUTA      52              0.0000000000
      3986       187  BUTA      O2             12.8924850312       -3.8254750253        0.7656923300  BUTA      52              0.0000000000
      3987       187  BUTA      DO2            12.9164369866       -3.8417089325        0.7338666512  BUTA      52              0.0000000000
      3988       187  BUTA      H1             13.0503728208       -7.3968733906        1.3548214933  BUTA      52              0.0000000000
      3989       187  BUTA      H2             12.1667050875       -6.7150764234       -0.0362868930  BUTA      52              0.0000000000
      3990       187  BUTA      H3             12.8227653546       -8.3835389889       -0.1341708458  BUTA      52              0.0000000000
      3991       187  BUTA      H4             14.2740690073       -6.7818641366       -1.4273377676  BUTA      52              0.0000000000
      3992       187  BUTA      H5             15.1845556492       -7.4476288261       -0.0489830826  BUTA      52              0.0000000000
      3993       187  BUTA      H6             15.6003854241       -5.0696555619       -0.2502531600  BUTA      52              0.0000000000
      3994       187  BUTA      H7             14.7697744277       -5.4257633017        1.2628947259  BUTA      52              0.0000000000
      3995       187  BUTA      H8             13.1544555756       -4.1243003172        1.6494546730  BUTA      52              0.0000000000
      3996       187  BUTA      H9             12.6742868689       -3.5568541207       -1.6576277318  BUTA      52              0.0000000000
      3997       187  BUTA      LPO11          13.5525612884       -4.4345591942       -1.6089844863  BUTA      52              0.0000000000
      3998       187  BUTA      LPO12          13.1044052794       -3.9695278190       -1.4841529985  BUTA      52              0.0000000000
      3999       187  BUTA      LPO21          12.9931092815       -3.9623314595        1.0717071609  BUTA      52              0.0000000000
      4000       187  BUTA      LPO22          12.6637949057       -3.5932760866        0.6380816747  BUTA      52              0.0000000000
      4001       188  BUTA      C1              1.8749482207      -13.2578288386      -24.8537654556  BUTA      53              0.0000000000
      4002       188  BUTA      DC1             1.8977494432      -13.2246488335      -24.8246298243  BUTA      53              0.0000000000
      4003       188  BUTA      C2              1.0810872457      -14.4734603812      -25.3295937580  BUTA      53              0.0000000000
      4004       188  BUTA      DC2             1.0300949476      -14.4146932555      -25.2598969549  BUTA      53              0.0000000000
      4005       188  BUTA      C3              1.9735090410      -15.6860981375      -25.6712053257  BUTA      53              0.0000000000
      4006       188  BUTA      DC3             1.9753749002      -15.6223616996      -25.6595006182  BUTA      53              0.0000000000
      4007       188  BUTA      C4              3.0220647683      -15.4504940345      -26.7199905049  BUTA      53              0.0000000000
      4008       188  BUTA      DC4             3.0252302218      -15.4432317662      -26.7044226050  BUTA      53              0.0000000000
      4009       188  BUTA      O1              2.5695317149      -15.1489016932      -27.8719218717  BUTA      53              0.0000000000
      4010       188  BUTA      DO1             2.5726661388      -15.1523306582      -27.8566441863  BUTA      53              0.0000000000
      4011       188  BUTA      O2              4.2328702994      -15.4218889001      -26.3080776874  BUTA      53              0.0000000000
      4012       188  BUTA      DO2             4.2400313195      -15.4194698091      -26.3020303365  BUTA      53              0.0000000000
      4013       188  BUTA      H1              2.4481288722      -13.5052846835      -23.9347711443  BUTA      53              0.0000000000
      4014       188  BUTA      H2              2.6040612462      -12.9678320374      -25.6402875792  BUTA      53              0.0000000000
      4015       188  BUTA      H3              1.2090803193      -12.3910688930      -24.6545968467  BUTA      53              0.0000000000
      4016       188  BUTA      H4              0.5132322166      -14.2068350042      -26.2465302739  BUTA      53              0.0000000000
      4017       188  BUTA      H5              0.3403878725      -14.7749277827      -24.5583591340  BUTA      53              0.0000000000
      4018       188  BUTA      H6              1.2892669434      -16.5072609191      -25.9742324504  BUTA      53              0.0000000000
      4019       188  BUTA      H7              2.4147064316      -16.0282044869      -24.7106694814  BUTA      53              0.0000000000
      4020       188  BUTA      H8              4.3388384471      -15.6309177733      -25.3678443749  BUTA      53              0.0000000000
      4021       188  BUTA      H9              3.2467600335      -15.0133612001      -28.5515920706  BUTA      53              0.0000000000
      4022       188  BUTA      LPO11           2.2196843963      -15.1413338610      -27.8648804537  BUTA      53              0.0000000000
      4023       188  BUTA      LPO12           2.8343274795      -15.0997865998      -28.0954636143  BUTA      53              0.0000000000
      4024       188  BUTA      LPO21           4.2428145416      -15.4730625946      -25.9619817974  BUTA      53              0.0000000000
      4025       188  BUTA      LPO22           4.4495264967      -15.3653617977      -26.5770847112  BUTA      53              0.0000000000
      4026       189  BUTA      C1            -15.3222564869        0.1211778656       11.4991136579  BUTA      54              0.0000000000
      4027       189  BUTA      DC1           -15.3414207068        0.0796656371       11.4948405765  BUTA      54              0.0000000000
      4028       189  BUTA      C2            -16.7253793893        0.3933579295       11.9932003031  BUTA      54              0.0000000000
      4029       189  BUTA      DC2           -16.7415093822        0.4658682148       11.9542105362  BUTA      54              0.0000000000
      4030       189  BUTA      C3            -17.1015209970       -0.5221876957       13.1691071646  BUTA      54              0.0000000000
      4031       189  BUTA      DC3           -17.0935072454       -0.5604021074       13.1212617323  BUTA      54              0.0000000000
      4032       189  BUTA      C4            -17.0161129885       -2.0005393506       12.9633556470  BUTA      54              0.0000000000
      4033       189  BUTA      DC4           -17.0447440126       -2.0254615761       12.9277519511  BUTA      54              0.0000000000
      4034       189  BUTA      O1            -17.7980093867       -2.5103329699       12.0901037755  BUTA      54              0.0000000000
      4035       189  BUTA      DO1           -17.8257981314       -2.5307913607       12.0587557361  BUTA      54              0.0000000000
      4036       189  BUTA      O2            -16.1784892498       -2.6217965139       13.6901288955  BUTA      54              0.0000000000
      4037       189  BUTA      DO2           -16.1918763803       -2.6198103130       13.6748429601  BUTA      54              0.0000000000
      4038       189  BUTA      H1            -14.5598964533        0.2656328700       12.2942620292  BUTA      54              0.0000000000
      4039       189  BUTA      H2            -15.2591656589       -0.9386695808       11.1719073954  BUTA      54              0.0000000000
      4040       189  BUTA      H3            -15.0633738876        0.8142415667       10.6702810414  BUTA      54              0.0000000000
      4041       189  BUTA      H4            -17.4371936074        0.2261359024       11.1567325425  BUTA      54              0.0000000000
      4042       189  BUTA      H5            -16.7907340215        1.4530502290       12.3204647257  BUTA      54              0.0000000000
      4043       189  BUTA      H6            -18.1121098312       -0.2026765752       13.5021895151  BUTA      54              0.0000000000
      4044       189  BUTA      H7            -16.4199785244       -0.1949824203       13.9832064017  BUTA      54              0.0000000000
      4045       189  BUTA      H8            -15.6788935085       -2.0583113140       14.2999235534  BUTA      54              0.0000000000
      4046       189  BUTA      H9            -17.7381723853       -3.4744695751       12.0138073807  BUTA      54              0.0000000000
      4047       189  BUTA      LPO11         -17.9946749307       -2.2599211466       11.9447883169  BUTA      54              0.0000000000
      4048       189  BUTA      LPO12         -17.7477963419       -2.8562312923       12.0718554686  BUTA      54              0.0000000000
      4049       189  BUTA      LPO21         -16.0136909074       -2.3969555404       13.9017607528  BUTA      54              0.0000000000
      4050       189  BUTA      LPO22         -16.1855233840       -2.9636496252       13.6153828507  BUTA      54              0.0000000000
      4051       190  BUTA      C1            -20.7584564134       25.6589763961       23.0531925377  BUTA      55              0.0000000000
      4052       190  BUTA      DC1           -20.8307989705       25.6657527758       23.1076714211  BUTA      55              0.0000000000
      4053       190  BUTA      C2            -20.1279134719       27.0120306314       22.7208198624  BUTA      55              0.0000000000
      4054       190  BUTA      DC2           -20.2577181469       27.0521285546       22.8180539854  BUTA      55              0.0000000000
      4055       190  BUTA      C3            -19.4353601408       26.9870907748       21.3509970026  BUTA      55              0.0000000000
      4056       190  BUTA      DC3           -19.5079692085       26.9541256935       21.4393884392  BUTA      55              0.0000000000
      4057       190  BUTA      C4            -18.4802627741       25.8346856052       21.1889195479  BUTA      55              0.0000000000
      4058       190  BUTA      DC4           -18.5068061614       25.8634777635       21.2209559199  BUTA      55              0.0000000000
      4059       190  BUTA      O1            -17.6245343961       25.7520537265       22.1355157073  BUTA      55              0.0000000000
      4060       190  BUTA      DO1           -17.6421856826       25.7410827221       22.1410687616  BUTA      55              0.0000000000
      4061       190  BUTA      O2            -18.9895323919       24.8758317755       20.5195292964  BUTA      55              0.0000000000
      4062       190  BUTA      DO2           -18.9920777608       24.9043796128       20.5393484796  BUTA      55              0.0000000000
      4063       190  BUTA      H1            -21.4821551655       25.3562992420       22.2664475618  BUTA      55              0.0000000000
      4064       190  BUTA      H2            -19.9758547510       24.8707770494       23.0287501984  BUTA      55              0.0000000000
      4065       190  BUTA      H3            -21.2278492598       25.6327854670       24.0598232507  BUTA      55              0.0000000000
      4066       190  BUTA      H4            -19.3358855501       27.2383091325       23.4663470669  BUTA      55              0.0000000000
      4067       190  BUTA      H5            -20.8687564929       27.8397738104       22.7385356182  BUTA      55              0.0000000000
      4068       190  BUTA      H6            -18.9236330362       27.9578531023       21.1775701480  BUTA      55              0.0000000000
      4069       190  BUTA      H7            -20.2477446944       26.9572809290       20.5937231350  BUTA      55              0.0000000000
      4070       190  BUTA      H8            -19.8315816934       25.0864001663       20.0887452129  BUTA      55              0.0000000000
      4071       190  BUTA      H9            -16.9701162021       25.0467669942       22.0203269378  BUTA      55              0.0000000000
      4072       190  BUTA      LPO11         -17.6770348834       26.0091518335       22.3671280174  BUTA      55              0.0000000000
      4073       190  BUTA      LPO12         -17.4118172245       25.4794845822       22.0811331140  BUTA      55              0.0000000000
      4074       190  BUTA      LPO21         -19.3164891707       24.9566991450       20.4243466647  BUTA      55              0.0000000000
      4075       190  BUTA      LPO22         -18.7581684028       24.6149821154       20.4890635893  BUTA      55              0.0000000000
      4076       191  BUTA      C1             -9.9617804758       10.8585016740       22.8741968106  BUTA      56              0.0000000000
      4077       191  BUTA      DC1            -9.9236105600       10.8497161481       22.8810369696  BUTA      56              0.0000000000
      4078       191  BUTA      C2             -8.8871417142       10.2315081652       21.9898040534  BUTA      56              0.0000000000
      4079       191  BUTA      DC2            -8.8803908720       10.1475538551       22.0240376862  BUTA      56              0.0000000000
      4080       191  BUTA      C3             -7.6832225340       11.1721493386       21.7837242356  BUTA      56              0.0000000000
      4081       191  BUTA      DC3            -7.6738303191       11.1589231782       21.7924743057  BUTA      56              0.0000000000
      4082       191  BUTA      C4             -7.9983221423       12.5061520924       21.1551285610  BUTA      56              0.0000000000
      4083       191  BUTA      DC4            -7.9878786888       12.4922466744       21.1762150945  BUTA      56              0.0000000000
      4084       191  BUTA      O1             -8.1361853957       12.4551465028       19.8897247748  BUTA      56              0.0000000000
      4085       191  BUTA      DO1            -8.1135798838       12.4481083159       19.9154508648  BUTA      56              0.0000000000
      4086       191  BUTA      O2             -7.6673872862       13.5099740458       21.8715815950  BUTA      56              0.0000000000
      4087       191  BUTA      DO2            -7.6511227585       13.5042631419       21.8742256009  BUTA      56              0.0000000000
      4088       191  BUTA      H1             -9.5393806700       11.1472722020       23.8603565270  BUTA      56              0.0000000000
      4089       191  BUTA      H2            -10.3686280970       11.7784738613       22.4025537381  BUTA      56              0.0000000000
      4090       191  BUTA      H3            -10.8150120029       10.1662645051       23.0388924819  BUTA      56              0.0000000000
      4091       191  BUTA      H4             -9.3316646647       10.0144049854       20.9950244012  BUTA      56              0.0000000000
      4092       191  BUTA      H5             -8.5465055460        9.2715068851       22.4332964921  BUTA      56              0.0000000000
      4093       191  BUTA      H6             -6.9702304300       10.6082087592       21.1450269031  BUTA      56              0.0000000000
      4094       191  BUTA      H7             -7.1937383410       11.2769506993       22.7755623782  BUTA      56              0.0000000000
      4095       191  BUTA      H8             -7.3607655817       13.2866718879       22.7632543357  BUTA      56              0.0000000000
      4096       191  BUTA      H9             -8.3794391809       13.2991622116       19.4805474546  BUTA      56              0.0000000000
      4097       191  BUTA      LPO11          -8.0897033242       12.1269429593       19.7773777632  BUTA      56              0.0000000000
      4098       191  BUTA      LPO12          -8.2085769321       12.7737642612       19.7642568924  BUTA      56              0.0000000000
      4099       191  BUTA      LPO21          -7.5230855922       13.4008350506       22.1711908419  BUTA      56              0.0000000000
      4100       191  BUTA      LPO22          -7.7496400469       13.8073255558       21.7063043645  BUTA      56              0.0000000000
      4101       192  BUTA      C1             24.9145194803       27.9242099278      -22.5097534768  BUTA      57              0.0000000000
      4102       192  BUTA      DC1            24.9057693995       27.9123777981      -22.5149380527  BUTA      57              0.0000000000
      4103       192  BUTA      C2             25.5183661041       26.5305840698      -22.6646208248  BUTA      57              0.0000000000
      4104       192  BUTA      DC2            25.5608476387       26.5587122045      -22.7411601547  BUTA      57              0.0000000000
      4105       192  BUTA      C3             24.5884162231       25.4131817449      -22.1488054695  BUTA      57              0.0000000000
      4106       192  BUTA      DC3            24.5918050574       25.4500633859      -22.1449009698  BUTA      57              0.0000000000
      4107       192  BUTA      C4             24.1410212272       25.4980102918      -20.7170559454  BUTA      57              0.0000000000
      4108       192  BUTA      DC4            24.1393463050       25.4991431493      -20.7249371706  BUTA      57              0.0000000000
      4109       192  BUTA      O1             25.0493548775       25.2551107046      -19.8560481089  BUTA      57              0.0000000000
      4110       192  BUTA      DO1            25.0402975094       25.2493376859      -19.8669313218  BUTA      57              0.0000000000
      4111       192  BUTA      O2             22.8862588321       25.6469179213      -20.5267367078  BUTA      57              0.0000000000
      4112       192  BUTA      DO2            22.8844379045       25.6400963105      -20.5310218142  BUTA      57              0.0000000000
      4113       192  BUTA      H1             23.9705302560       28.0227230097      -23.0872485111  BUTA      57              0.0000000000
      4114       192  BUTA      H2             24.6699344619       28.1185542780      -21.4435783309  BUTA      57              0.0000000000
      4115       192  BUTA      H3             25.6172586360       28.7135943134      -22.8523187551  BUTA      57              0.0000000000
      4116       192  BUTA      H4             26.4628619863       26.4799893305      -22.0817926318  BUTA      57              0.0000000000
      4117       192  BUTA      H5             25.7646446208       26.3402548773      -23.7311304086  BUTA      57              0.0000000000
      4118       192  BUTA      H6             25.1337856348       24.4616517155      -22.3262422409  BUTA      57              0.0000000000
      4119       192  BUTA      H7             23.7303479970       25.3825588662      -22.8538601901  BUTA      57              0.0000000000
      4120       192  BUTA      H8             22.3634868390       25.7214761160      -21.3392091807  BUTA      57              0.0000000000
      4121       192  BUTA      H9             24.7578031042       25.3107521843      -18.9336259771  BUTA      57              0.0000000000
      4122       192  BUTA      LPO11          25.3512496557       25.1827799533      -20.0176890854  BUTA      57              0.0000000000
      4123       192  BUTA      LPO12          24.9180347023       25.2818277096      -19.5327197723  BUTA      57              0.0000000000
      4124       192  BUTA      LPO21          22.7191752456       25.6590064628      -20.8340426503  BUTA      57              0.0000000000
      4125       192  BUTA      LPO22          22.8182483946       25.6627289200      -20.1837722888  BUTA      57              0.0000000000
      4126       193  BUTA      C1             -1.4294705495      -25.3723562369        4.6562380220  BUTA      58              0.0000000000
      4127       193  BUTA      DC1            -1.4549778824      -25.3697046562        4.6382820007  BUTA      58              0.0000000000
      4128       193  BUTA      C2             -1.5675926397      -26.6951837843        5.4034549560  BUTA      58              0.0000000000
      4129       193  BUTA      DC2            -1.5290492517      -26.7356528014        5.3202418277  BUTA      58              0.0000000000
      4130       193  BUTA      C3             -2.8958395014      -26.7861136712        6.1776077484  BUTA      58              0.0000000000
      4131       193  BUTA      DC3            -2.8734279869      -26.7682473941        6.1454563269  BUTA      58              0.0000000000
      4132       193  BUTA      C4             -3.1772347553      -25.7119682129        7.1765207081  BUTA      58              0.0000000000
      4133       193  BUTA      DC4            -3.1876483145      -25.7153395221        7.1477320530  BUTA      58              0.0000000000
      4134       193  BUTA      O1             -2.4017946002      -25.7022983390        8.1813261828  BUTA      58              0.0000000000
      4135       193  BUTA      DO1            -2.4215832499      -25.7018277417        8.1508169491  BUTA      58              0.0000000000
      4136       193  BUTA      O2             -4.1231144135      -24.9034257609        6.8786904664  BUTA      58              0.0000000000
      4137       193  BUTA      DO2            -4.1280836331      -24.8972041237        6.8701652690  BUTA      58              0.0000000000
      4138       193  BUTA      H1             -2.2436315351      -25.2489616692        3.9104252624  BUTA      58              0.0000000000
      4139       193  BUTA      H2             -1.5076690648      -24.5308273093        5.3773725841  BUTA      58              0.0000000000
      4140       193  BUTA      H3             -0.4468838905      -25.2921360146        4.1439791290  BUTA      58              0.0000000000
      4141       193  BUTA      H4             -0.7398285175      -26.7798002689        6.1396394506  BUTA      58              0.0000000000
      4142       193  BUTA      H5             -1.4751107720      -27.5475743595        4.6969152109  BUTA      58              0.0000000000
      4143       193  BUTA      H6             -2.9235509232      -27.7928119332        6.6467683698  BUTA      58              0.0000000000
      4144       193  BUTA      H7             -3.6895655946      -26.7839082876        5.4002307322  BUTA      58              0.0000000000
      4145       193  BUTA      H8             -4.5959971322      -25.1279409949        6.0632544824  BUTA      58              0.0000000000
      4146       193  BUTA      H9             -2.6162359310      -25.0383080168        8.8537046237  BUTA      58              0.0000000000
      4147       193  BUTA      LPO11          -2.1674437824      -25.9608371731        8.1541717087  BUTA      58              0.0000000000
      4148       193  BUTA      LPO12          -2.4898786969      -25.4419355334        8.3980112108  BUTA      58              0.0000000000
      4149       193  BUTA      LPO21          -4.2611589787      -24.9896225749        6.5688295181  BUTA      58              0.0000000000
      4150       193  BUTA      LPO22          -4.1620578196      -24.6659387832        7.1328230037  BUTA      58              0.0000000000
      4151       194  BUTA      C1             15.6668522702        8.0034646526       -4.2148534008  BUTA      59              0.0000000000
      4152       194  BUTA      DC1            15.6567666912        7.9723745533       -4.2193199210  BUTA      59              0.0000000000
      4153       194  BUTA      C2             16.9911561634        7.6224281754       -4.8684696292  BUTA      59              0.0000000000
      4154       194  BUTA      DC2            16.9847951881        7.6684308593       -4.9051827841  BUTA      59              0.0000000000
      4155       194  BUTA      C3             17.0782374164        6.2340327310       -5.5264775214  BUTA      59              0.0000000000
      4156       194  BUTA      DC3            17.0609096875        6.2049393563       -5.4994935805  BUTA      59              0.0000000000
      4157       194  BUTA      C4             16.8140157844        5.0492443290       -4.6435535154  BUTA      59              0.0000000000
      4158       194  BUTA      DC4            16.7701826786        5.0052246665       -4.6654336724  BUTA      59              0.0000000000
      4159       194  BUTA      O1             17.6323530336        4.8834285643       -3.6836287227  BUTA      59              0.0000000000
      4160       194  BUTA      DO1            17.6026573603        4.8821785619       -3.7086974899  BUTA      59              0.0000000000
      4161       194  BUTA      O2             15.9188614058        4.2235522863       -5.0453869031  BUTA      59              0.0000000000
      4162       194  BUTA      DO2            15.8937393016        4.1666564789       -5.0647759728  BUTA      59              0.0000000000
      4163       194  BUTA      H1             14.8449240620        8.0451976775       -4.9611866876  BUTA      59              0.0000000000
      4164       194  BUTA      H2             15.3981772853        7.2755278368       -3.4197164656  BUTA      59              0.0000000000
      4165       194  BUTA      H3             15.7515873306        9.0051987154       -3.7419159448  BUTA      59              0.0000000000
      4166       194  BUTA      H4             17.7675779919        7.6199187538       -4.0738100498  BUTA      59              0.0000000000
      4167       194  BUTA      H5             17.2538728501        8.3949663524       -5.6224495427  BUTA      59              0.0000000000
      4168       194  BUTA      H6             18.1176808599        6.1943821916       -5.9167417435  BUTA      59              0.0000000000
      4169       194  BUTA      H7             16.4328679092        6.2826378596       -6.4295039554  BUTA      59              0.0000000000
      4170       194  BUTA      H8             15.4240868841        4.5398612985       -5.8161707777  BUTA      59              0.0000000000
      4171       194  BUTA      H9             17.4659452109        4.1101947870       -3.1238261126  BUTA      59              0.0000000000
      4172       194  BUTA      LPO11          17.8753484565        5.1352782881       -3.6886228243  BUTA      59              0.0000000000
      4173       194  BUTA      LPO12          17.5433533639        4.6003754171       -3.4979947423  BUTA      59              0.0000000000
      4174       194  BUTA      LPO21          15.7853656298        4.3308962612       -5.3506018254  BUTA      59              0.0000000000
      4175       194  BUTA      LPO22          15.8852382677        3.9620575181       -4.8151913975  BUTA      59              0.0000000000
      4176       195  BUTA      C1              7.3263326263      -23.2619925045        6.8960727147  BUTA      60              0.0000000000
      4177       195  BUTA      DC1             7.3463713201      -23.2459422917        6.9332828121  BUTA      60              0.0000000000
      4178       195  BUTA      C2              6.2674161351      -22.3910008920        6.2488079335  BUTA      60              0.0000000000
      4179       195  BUTA      DC2             6.3532521194      -22.3223472988        6.2686694535  BUTA      60              0.0000000000
      4180       195  BUTA      C3              4.8564049064      -22.9202781162        6.5501324786  BUTA      60              0.0000000000
      4181       195  BUTA      DC3             4.9169995933      -22.9228511227        6.5384634146  BUTA      60              0.0000000000
      4182       195  BUTA      C4              4.5271852477      -24.3090221643        6.1128996400  BUTA      60              0.0000000000
      4183       195  BUTA      DC4             4.5373594591      -24.2888071406        6.1060110469  BUTA      60              0.0000000000
      4184       195  BUTA      O1              4.5270083582      -24.4691965281        4.8482637206  BUTA      60              0.0000000000
      4185       195  BUTA      DO1             4.5279541426      -24.4590393809        4.8499206499  BUTA      60              0.0000000000
      4186       195  BUTA      O2              4.3693257187      -25.1735527899        7.0372337023  BUTA      60              0.0000000000
      4187       195  BUTA      DO2             4.3764707588      -25.1566220457        7.0298467634  BUTA      60              0.0000000000
      4188       195  BUTA      H1              7.1595846462      -23.3383203528        7.9918328030  BUTA      60              0.0000000000
      4189       195  BUTA      H2              7.2050652179      -24.2818045740        6.4722820135  BUTA      60              0.0000000000
      4190       195  BUTA      H3              8.3617851213      -22.9217830104        6.6806275194  BUTA      60              0.0000000000
      4191       195  BUTA      H4              6.4181389997      -22.4138326183        5.1483160755  BUTA      60              0.0000000000
      4192       195  BUTA      H5              6.3497316909      -21.3380180088        6.5934413574  BUTA      60              0.0000000000
      4193       195  BUTA      H6              4.1254021438      -22.1892943636        6.1431696860  BUTA      60              0.0000000000
      4194       195  BUTA      H7              4.7805499783      -22.8304548332        7.6548943571  BUTA      60              0.0000000000
      4195       195  BUTA      H8              4.4036378071      -24.8124839970        7.9357953350  BUTA      60              0.0000000000
      4196       195  BUTA      H9              4.2876648394      -25.3639541928        4.5635104915  BUTA      60              0.0000000000
      4197       195  BUTA      LPO11           4.6064046188      -24.1676078829        4.6893910582  BUTA      60              0.0000000000
      4198       195  BUTA      LPO12           4.4475788752      -24.8008681920        4.7696198103  BUTA      60              0.0000000000
      4199       195  BUTA      LPO21           4.4152744347      -25.0238689258        7.3502567947  BUTA      60              0.0000000000
      4200       195  BUTA      LPO22           4.2937448446      -25.4855195930        6.8977193832  BUTA      60              0.0000000000
      4201       196  BUTA      C1             21.2094098520      -23.8377705696       23.4523738829  BUTA      61              0.0000000000
      4202       196  BUTA      DC1            21.1719218132      -23.8590397854       23.3760091145  BUTA      61              0.0000000000
      4203       196  BUTA      C2             20.2996828001      -24.5366848380       22.4515421332  BUTA      61              0.0000000000
      4204       196  BUTA      DC2            20.3068850631      -24.6331534032       22.4404089533  BUTA      61              0.0000000000
      4205       196  BUTA      C3             19.9422777516      -23.6268318527       21.2592231018  BUTA      61              0.0000000000
      4206       196  BUTA      DC3            19.9399512638      -23.6070187945       21.2769329434  BUTA      61              0.0000000000
      4207       196  BUTA      C4             19.3060547596      -22.2918868438       21.5644391753  BUTA      61              0.0000000000
      4208       196  BUTA      DC4            19.2826302449      -22.2914937753       21.5660913531  BUTA      61              0.0000000000
      4209       196  BUTA      O1             18.1116043675      -22.3475399065       22.0173870619  BUTA      61              0.0000000000
      4210       196  BUTA      DO1            18.0925917275      -22.3490759932       22.0139092014  BUTA      61              0.0000000000
      4211       196  BUTA      O2             19.9115455695      -21.2721102367       21.0878022981  BUTA      61              0.0000000000
      4212       196  BUTA      DO2            19.9054503441      -21.2829181717       21.0743613248  BUTA      61              0.0000000000
      4213       196  BUTA      H1             22.1867663885      -23.5643439383       23.0003417168  BUTA      61              0.0000000000
      4214       196  BUTA      H2             20.7524099247      -22.8956109987       23.8235980877  BUTA      61              0.0000000000
      4215       196  BUTA      H3             21.4195859307      -24.4684730035       24.3425207561  BUTA      61              0.0000000000
      4216       196  BUTA      H4             19.3517803363      -24.8199546363       22.9570716986  BUTA      61              0.0000000000
      4217       196  BUTA      H5             20.7874956836      -25.4675230873       22.0911260622  BUTA      61              0.0000000000
      4218       196  BUTA      H6             19.2759262119      -24.2326642418       20.6086358730  BUTA      61              0.0000000000
      4219       196  BUTA      H7             20.8853878726      -23.5153087974       20.6826583545  BUTA      61              0.0000000000
      4220       196  BUTA      H8             20.7708148020      -21.4701757585       20.6860717476  BUTA      61              0.0000000000
      4221       196  BUTA      H9             17.7041038862      -21.4839344760       22.1819775175  BUTA      61              0.0000000000
      4222       196  BUTA      LPO11          18.0080463530      -22.6810156635       22.0412545543  BUTA      61              0.0000000000
      4223       196  BUTA      LPO12          17.9915155025      -22.0244845354       22.0783287689  BUTA      61              0.0000000000
      4224       196  BUTA      LPO21          20.1960616661      -21.3736205638       20.9110362260  BUTA      61              0.0000000000
      4225       196  BUTA      LPO22          19.7404430348      -20.9795871055       21.1752902423  BUTA      61              0.0000000000
      4226       197  BUTA      C1             -8.1860317471       -0.2540678575        5.8447476428  BUTA      62              0.0000000000
      4227       197  BUTA      DC1            -8.2183383401       -0.2971482060        5.8404393940  BUTA      62              0.0000000000
      4228       197  BUTA      C2             -8.4834258167       -1.7493380029        5.9044727155  BUTA      62              0.0000000000
      4229       197  BUTA      DC2            -8.4284089933       -1.8320742967        5.8149966589  BUTA      62              0.0000000000
      4230       197  BUTA      C3             -9.9088720719       -1.9754532383        6.3765895224  BUTA      62              0.0000000000
      4231       197  BUTA      DC3            -9.8776036242       -1.9766018071        6.3725147275  BUTA      62              0.0000000000
      4232       197  BUTA      C4            -10.1515072637       -1.2869322745        7.6476964242  BUTA      62              0.0000000000
      4233       197  BUTA      DC4           -10.1260079700       -1.3130013022        7.6378709588  BUTA      62              0.0000000000
      4234       197  BUTA      O1             -9.4147890889       -1.6625829254        8.6181101850  BUTA      62              0.0000000000
      4235       197  BUTA      DO1            -9.4212068326       -1.6773787750        8.6115944710  BUTA      62              0.0000000000
      4236       197  BUTA      O2            -11.1854174392       -0.5590062628        7.6408782373  BUTA      62              0.0000000000
      4237       197  BUTA      DO2           -11.1628153921       -0.5990307422        7.6249769111  BUTA      62              0.0000000000
      4238       197  BUTA      H1             -9.0003494634        0.2681170479        5.2983681202  BUTA      62              0.0000000000
      4239       197  BUTA      H2             -8.1665098580        0.1894333074        6.8632006918  BUTA      62              0.0000000000
      4240       197  BUTA      H3             -7.2231776181        0.0020435866        5.3531788740  BUTA      62              0.0000000000
      4241       197  BUTA      H4             -7.7756255003       -2.2037088348        6.6303424415  BUTA      62              0.0000000000
      4242       197  BUTA      H5             -8.3647483638       -2.2155733637        4.9030431114  BUTA      62              0.0000000000
      4243       197  BUTA      H6            -10.1260723340       -3.0612710796        6.4668373023  BUTA      62              0.0000000000
      4244       197  BUTA      H7            -10.5690933825       -1.6232793501        5.5553694703  BUTA      62              0.0000000000
      4245       197  BUTA      H8            -11.6190373739       -0.4895810054        6.7770988176  BUTA      62              0.0000000000
      4246       197  BUTA      H9             -9.5986160857       -1.2133563327        9.4567782383  BUTA      62              0.0000000000
      4247       197  BUTA      LPO11          -9.1959680251       -1.9142295481        8.5118495651  BUTA      62              0.0000000000
      4248       197  BUTA      LPO12          -9.4952699913       -1.4814755854        8.9065940767  BUTA      62              0.0000000000
      4249       197  BUTA      LPO21         -11.3416094548       -0.5758412262        7.3281153267  BUTA      62              0.0000000000
      4250       197  BUTA      LPO22         -11.2249849163       -0.4043465344        7.9523501994  BUTA      62              0.0000000000
      4251       198  BUTA      C1             -9.4746630495       16.6163712300        5.5768297286  BUTA      63              0.0000000000
      4252       198  BUTA      DC1            -9.4566246034       16.6386789560        5.5714492877  BUTA      63              0.0000000000
      4253       198  BUTA      C2            -10.2820784052       15.4329786074        6.0984056917  BUTA      63              0.0000000000
      4254       198  BUTA      DC2           -10.3459670808       15.5153966753        6.1068116234  BUTA      63              0.0000000000
      4255       198  BUTA      C3             -9.3837072052       14.3038614057        6.6346436321  BUTA      63              0.0000000000
      4256       198  BUTA      DC3            -9.3863294506       14.3461399908        6.5895445269  BUTA      63              0.0000000000
      4257       198  BUTA      C4             -8.4204055404       13.7070510647        5.6757481701  BUTA      63              0.0000000000
      4258       198  BUTA      DC4            -8.4282654354       13.7114321854        5.6740979174  BUTA      63              0.0000000000
      4259       198  BUTA      O1             -8.9531592569       13.0987042917        4.6895125816  BUTA      63              0.0000000000
      4260       198  BUTA      DO1            -8.9508856197       13.0961624255        4.6973453710  BUTA      63              0.0000000000
      4261       198  BUTA      O2             -7.1829118988       13.8608820917        5.9368659981  BUTA      63              0.0000000000
      4262       198  BUTA      DO2            -7.1902319966       13.8573677304        5.9360871093  BUTA      63              0.0000000000
      4263       198  BUTA      H1             -8.8732187528       17.0636498324        6.3969075362  BUTA      63              0.0000000000
      4264       198  BUTA      H2             -8.7682197979       16.2664928932        4.7939861416  BUTA      63              0.0000000000
      4265       198  BUTA      H3            -10.1337460255       17.3962799864        5.1390250196  BUTA      63              0.0000000000
      4266       198  BUTA      H4            -10.8990507393       15.0112520288        5.2763273300  BUTA      63              0.0000000000
      4267       198  BUTA      H5            -10.9676709108       15.7642298130        6.9074523870  BUTA      63              0.0000000000
      4268       198  BUTA      H6            -10.0666013044       13.4992447319        6.9818736098  BUTA      63              0.0000000000
      4269       198  BUTA      H7             -8.8988317450       14.6946097808        7.5547156384  BUTA      63              0.0000000000
      4270       198  BUTA      H8             -7.0072974592       14.3272307200        6.7679132443  BUTA      63              0.0000000000
      4271       198  BUTA      H9             -8.3199198430       12.6642497587        4.0985657960  BUTA      63              0.0000000000
      4272       198  BUTA      LPO11          -9.3019851522       13.1146734575        4.7132924155  BUTA      63              0.0000000000
      4273       198  BUTA      LPO12          -8.7043424432       12.9685356371        4.4805955776  BUTA      63              0.0000000000
      4274       198  BUTA      LPO21          -7.1448577662       14.0433246242        6.2331202897  BUTA      63              0.0000000000
      4275       198  BUTA      LPO22          -6.9884238556       13.7073465375        5.6896793588  BUTA      63              0.0000000000
      4276       199  BUTA      C1             16.0001730422       17.8517415370        6.5274564710  BUTA      64              0.0000000000
      4277       199  BUTA      DC1            16.0118188926       17.7968575806        6.5234809422  BUTA      64              0.0000000000
      4278       199  BUTA      C2             16.0664785915       16.7519139383        5.4863932775  BUTA      64              0.0000000000
      4279       199  BUTA      DC2            16.0615828322       16.7642773357        5.4141299603  BUTA      64              0.0000000000
      4280       199  BUTA      C3             15.4716188210       15.4625080264        6.0707781858  BUTA      64              0.0000000000
      4281       199  BUTA      DC3            15.5323083762       15.4469082498        6.0879380602  BUTA      64              0.0000000000
      4282       199  BUTA      C4             16.2848530730       14.8029838182        7.1288415113  BUTA      64              0.0000000000
      4283       199  BUTA      DC4            16.3413230553       14.7710158644        7.1188137962  BUTA      64              0.0000000000
      4284       199  BUTA      O1             17.3574458729       14.2796406611        6.6821814067  BUTA      64              0.0000000000
      4285       199  BUTA      DO1            17.3980408055       14.2478675139        6.6357244569  BUTA      64              0.0000000000
      4286       199  BUTA      O2             15.7764965961       14.6255221756        8.2867332985  BUTA      64              0.0000000000
      4287       199  BUTA      DO2            15.8028903503       14.6024677888        8.2812673838  BUTA      64              0.0000000000
      4288       199  BUTA      H1             14.9496418727       18.0425228777        6.8345521276  BUTA      64              0.0000000000
      4289       199  BUTA      H2             16.5596208892       17.5690687911        7.4447542554  BUTA      64              0.0000000000
      4290       199  BUTA      H3             16.4198595420       18.7975414661        6.1229237320  BUTA      64              0.0000000000
      4291       199  BUTA      H4             17.1252332936       16.6022810166        5.1847818209  BUTA      64              0.0000000000
      4292       199  BUTA      H5             15.4955992287       17.0722495941        4.5887280723  BUTA      64              0.0000000000
      4293       199  BUTA      H6             15.3009393424       14.7907780129        5.2024647029  BUTA      64              0.0000000000
      4294       199  BUTA      H7             14.4415284197       15.7076106772        6.4071700069  BUTA      64              0.0000000000
      4295       199  BUTA      H8             14.8621648953       14.9379792827        8.3597339639  BUTA      64              0.0000000000
      4296       199  BUTA      H9             17.8944352478       13.8440608245        7.3610581386  BUTA      64              0.0000000000
      4297       199  BUTA      LPO11          17.3810257939       14.3312537292        6.3368119255  BUTA      64              0.0000000000
      4298       199  BUTA      LPO12          17.5353830179       14.1297026952        6.9436330826  BUTA      64              0.0000000000
      4299       199  BUTA      LPO21          15.4495840737       14.7503028562        8.2943480503  BUTA      64              0.0000000000
      4300       199  BUTA      LPO22          16.0080987692       14.4674697026        8.4962084741  BUTA      64              0.0000000000
      4301       200  BUTA      C1            -21.5263852180       -4.1689999315      -28.2513046197  BUTA      65              0.0000000000
      4302       200  BUTA      DC1           -21.5312757761       -4.1501377370      -28.2408563217  BUTA      65              0.0000000000
      4303       200  BUTA      C2            -20.3882644561       -3.5951847561      -27.4115505167  BUTA      65              0.0000000000
      4304       200  BUTA      DC2           -20.3695258031       -3.6667083659      -27.3754344650  BUTA      65              0.0000000000
      4305       200  BUTA      C3            -20.6542328059       -2.1398596527      -26.9734511861  BUTA      65              0.0000000000
      4306       200  BUTA      DC3           -20.6518689415       -2.1612117278      -26.9980803200  BUTA      65              0.0000000000
      4307       200  BUTA      C4            -20.8142716725       -1.1369309702      -28.0729516076  BUTA      65              0.0000000000
      4308       200  BUTA      DC4           -20.7996752648       -1.1457554225      -28.0722589381  BUTA      65              0.0000000000
      4309       200  BUTA      O1            -19.7384851468       -0.8557332551      -28.6991529634  BUTA      65              0.0000000000
      4310       200  BUTA      DO1           -19.7346380989       -0.8519784028      -28.6931250383  BUTA      65              0.0000000000
      4311       200  BUTA      O2            -21.9592911872       -0.5847332291      -28.1772309112  BUTA      65              0.0000000000
      4312       200  BUTA      DO2           -21.9448542239       -0.5907081238      -28.1720751015  BUTA      65              0.0000000000
      4313       200  BUTA      H1            -22.4806538195       -4.1697358275      -27.6823653469  BUTA      65              0.0000000000
      4314       200  BUTA      H2            -21.6791880401       -3.5499427252      -29.1611070559  BUTA      65              0.0000000000
      4315       200  BUTA      H3            -21.3088773317       -5.2095305469      -28.5742711167  BUTA      65              0.0000000000
      4316       200  BUTA      H4            -19.4566629815       -3.6169756630      -28.0165008029  BUTA      65              0.0000000000
      4317       200  BUTA      H5            -20.2211956392       -4.2360234316      -26.5195108294  BUTA      65              0.0000000000
      4318       200  BUTA      H6            -19.8148198079       -1.8585506104      -26.3022045533  BUTA      65              0.0000000000
      4319       200  BUTA      H7            -21.5512846626       -2.1675423693      -26.3185827767  BUTA      65              0.0000000000
      4320       200  BUTA      H8            -22.6063906786       -0.8820012472      -27.5200741768  BUTA      65              0.0000000000
      4321       200  BUTA      H9            -19.8518329143       -0.2077512128      -29.4106531794  BUTA      65              0.0000000000
      4322       200  BUTA      LPO11         -19.4713008746       -1.0385933790      -28.5662065840  BUTA      65              0.0000000000
      4323       200  BUTA      LPO12         -19.8038422238       -0.6201179192      -28.9495803301  BUTA      65              0.0000000000
      4324       200  BUTA      LPO21         -22.1746386243       -0.7081683103      -27.9304734147  BUTA      65              0.0000000000
      4325       200  BUTA      LPO22         -21.9588686307       -0.3576483568      -28.4435620626  BUTA      65              0.0000000000
      4326       201  BUTA      C1             14.4781767202       20.0308848002       -8.4975020238  BUTA      66              0.0000000000
      4327       201  BUTA      DC1            14.4867954965       20.0143774704       -8.4768980137  BUTA      66              0.0000000000
      4328       201  BUTA      C2             14.6957797511       18.7108288381       -7.7536303532  BUTA      66              0.0000000000
      4329       201  BUTA      DC2            14.6438083858       18.6510897736       -7.7834434668  BUTA      66              0.0000000000
      4330       201  BUTA      C3             15.0036135477       18.9503126546       -6.2744468164  BUTA      66              0.0000000000
      4331       201  BUTA      DC3            15.0401800439       18.9877912432       -6.2982688231  BUTA      66              0.0000000000
      4332       201  BUTA      C4             16.0421460093       19.9728735910       -6.1990290435  BUTA      66              0.0000000000
      4333       201  BUTA      DC4            15.9932400556       20.0584183118       -6.1646684978  BUTA      66              0.0000000000
      4334       201  BUTA      O1             17.2260041181       19.6074919209       -6.4915057438  BUTA      66              0.0000000000
      4335       201  BUTA      DO1            17.1637810477       19.6109334898       -6.4837042649  BUTA      66              0.0000000000
      4336       201  BUTA      O2             15.6348555369       21.1109416867       -5.8266212439  BUTA      66              0.0000000000
      4337       201  BUTA      DO2            15.6600438898       21.2447188889       -5.8316000374  BUTA      66              0.0000000000
      4338       201  BUTA      H1             13.6521142136       20.6114706691       -8.0339701629  BUTA      66              0.0000000000
      4339       201  BUTA      H2             15.3843128141       20.6717761865       -8.4475359252  BUTA      66              0.0000000000
      4340       201  BUTA      H3             14.2447335603       19.8689073377       -9.5715544400  BUTA      66              0.0000000000
      4341       201  BUTA      H4             15.5631692288       18.1855184894       -8.2075086755  BUTA      66              0.0000000000
      4342       201  BUTA      H5             13.8062126498       18.0538698714       -7.8603837618  BUTA      66              0.0000000000
      4343       201  BUTA      H6             15.2797747124       17.9945029006       -5.7799938609  BUTA      66              0.0000000000
      4344       201  BUTA      H7             14.0571406522       19.2552584809       -5.7789489845  BUTA      66              0.0000000000
      4345       201  BUTA      H8             14.7105531761       21.1375772610       -5.5369374643  BUTA      66              0.0000000000
      4346       201  BUTA      H9             17.9145639379       20.2735973765       -6.3460757034  BUTA      66              0.0000000000
      4347       201  BUTA      LPO11          17.2290321292       19.2678516812       -6.5759766780  BUTA      66              0.0000000000
      4348       201  BUTA      LPO12          17.4456226529       19.8784153387       -6.4620404953  BUTA      66              0.0000000000
      4349       201  BUTA      LPO21          15.2903481493       21.1007554633       -5.7657040808  BUTA      66              0.0000000000
      4350       201  BUTA      LPO22          15.9022681543       21.3365493456       -5.8170464715  BUTA      66              0.0000000000
      4351       202  BUTA      C1            -14.4426573007       -2.9423015734      -19.2013203146  BUTA      67              0.0000000000
      4352       202  BUTA      DC1           -14.4419695384       -2.9213493556      -19.1684459163  BUTA      67              0.0000000000
      4353       202  BUTA      C2            -15.1931076658       -3.0604038440      -20.5111036067  BUTA      67              0.0000000000
      4354       202  BUTA      DC2           -15.1261026527       -2.9967179799      -20.5234559298  BUTA      67              0.0000000000
      4355       202  BUTA      C3            -16.7096389879       -3.1424376451      -20.2977748916  BUTA      67              0.0000000000
      4356       202  BUTA      DC3           -16.6703424617       -3.1477417485      -20.2676487678  BUTA      67              0.0000000000
      4357       202  BUTA      C4            -17.3169778624       -4.2835081568      -19.5256984887  BUTA      67              0.0000000000
      4358       202  BUTA      DC4           -17.3102948019       -4.2794209674      -19.5198883565  BUTA      67              0.0000000000
      4359       202  BUTA      O1            -16.9389114256       -5.4628423908      -19.8270634489  BUTA      67              0.0000000000
      4360       202  BUTA      DO1           -16.9434905126       -5.4587386726      -19.8116311445  BUTA      67              0.0000000000
      4361       202  BUTA      O2            -18.0919377079       -3.9383738822      -18.5759661849  BUTA      67              0.0000000000
      4362       202  BUTA      DO2           -18.0912278189       -3.9357119361      -18.5782739347  BUTA      67              0.0000000000
      4363       202  BUTA      H1            -14.8456769093       -2.0975980817      -18.6026783452  BUTA      67              0.0000000000
      4364       202  BUTA      H2            -14.5816357525       -3.8720851480      -18.6092827355  BUTA      67              0.0000000000
      4365       202  BUTA      H3            -13.3553962212       -2.8033105232      -19.3826096774  BUTA      67              0.0000000000
      4366       202  BUTA      H4            -14.8669434444       -3.9734974301      -21.0535038313  BUTA      67              0.0000000000
      4367       202  BUTA      H5            -14.9706877963       -2.1884352574      -21.1626565116  BUTA      67              0.0000000000
      4368       202  BUTA      H6            -17.0731774391       -3.1494357967      -21.3475900283  BUTA      67              0.0000000000
      4369       202  BUTA      H7            -17.0237875375       -2.1556985784      -19.8953103552  BUTA      67              0.0000000000
      4370       202  BUTA      H8            -18.1736746883       -2.9811651336      -18.4493507131  BUTA      67              0.0000000000
      4371       202  BUTA      H9            -17.3840255318       -6.1674670823      -19.3327573933  BUTA      67              0.0000000000
      4372       202  BUTA      LPO11         -16.7033781612       -5.4506294523      -20.0856653157  BUTA      67              0.0000000000
      4373       202  BUTA      LPO12         -17.1034302409       -5.6965766355      -19.6250687403  BUTA      67              0.0000000000
      4374       202  BUTA      LPO21         -18.1117144245       -3.5893737879      -18.5584215092  BUTA      67              0.0000000000
      4375       202  BUTA      LPO22         -18.2178569254       -4.2224871816      -18.4149569190  BUTA      67              0.0000000000
      4376       203  BUTA      C1             -8.0963802314       21.8168955718       24.2460201543  BUTA      68              0.0000000000
      4377       203  BUTA      DC1            -8.0958251675       21.7854617478       24.2315692148  BUTA      68              0.0000000000
      4378       203  BUTA      C2             -8.7921439226       21.7357238134       22.8904980900  BUTA      68              0.0000000000
      4379       203  BUTA      DC2            -8.8686036924       21.7636432564       22.9273623079  BUTA      68              0.0000000000
      4380       203  BUTA      C3             -8.2523804976       20.6036677397       21.9849963973  BUTA      68              0.0000000000
      4381       203  BUTA      DC3            -8.2153970148       20.6308376820       22.0100503489  BUTA      68              0.0000000000
      4382       203  BUTA      C4             -6.8095087399       20.6503883348       21.5706768315  BUTA      68              0.0000000000
      4383       203  BUTA      DC4            -6.7923142066       20.6523133213       21.5712201832  BUTA      68              0.0000000000
      4384       203  BUTA      O1             -6.4774183515       21.6205326404       20.8096791535  BUTA      68              0.0000000000
      4385       203  BUTA      DO1            -6.4729046816       21.6154745899       20.8081340205  BUTA      68              0.0000000000
      4386       203  BUTA      O2             -6.0584910497       19.6966517884       21.9731693225  BUTA      68              0.0000000000
      4387       203  BUTA      DO2            -6.0458155720       19.6957529223       21.9716020559  BUTA      68              0.0000000000
      4388       203  BUTA      H1             -8.2025287477       20.8664003549       24.8113628247  BUTA      68              0.0000000000
      4389       203  BUTA      H2             -7.0109401454       22.0110460931       24.1102026486  BUTA      68              0.0000000000
      4390       203  BUTA      H3             -8.4994093366       22.6453717235       24.8669193464  BUTA      68              0.0000000000
      4391       203  BUTA      H4             -8.6683731139       22.7050710463       22.3619456052  BUTA      68              0.0000000000
      4392       203  BUTA      H5             -9.8799128129       21.5666385061       23.0404647558  BUTA      68              0.0000000000
      4393       203  BUTA      H6             -8.9051365172       20.6041570612       21.0859800791  BUTA      68              0.0000000000
      4394       203  BUTA      H7             -8.5089662620       19.6592814283       22.5109424424  BUTA      68              0.0000000000
      4395       203  BUTA      H8             -6.5124232020       19.0401136455       22.5225910805  BUTA      68              0.0000000000
      4396       203  BUTA      H9             -5.5381433471       21.6445529091       20.5727266415  BUTA      68              0.0000000000
      4397       203  BUTA      LPO11          -6.7560760624       21.8218007744       20.7437927484  BUTA      68              0.0000000000
      4398       203  BUTA      LPO12          -6.1364969613       21.6011570151       20.7328859841  BUTA      68              0.0000000000
      4399       203  BUTA      LPO21          -6.2443946709       19.4708806561       22.1654379873  BUTA      68              0.0000000000
      4400       203  BUTA      LPO22          -5.7319969614       19.7438834956       21.8562472282  BUTA      68              0.0000000000
      4401       204  BUTA      C1            -11.9242581719       11.8771490338       -7.5541282649  BUTA      69              0.0000000000
      4402       204  BUTA      DC1           -11.9208930710       11.8560008292       -7.5782505526  BUTA      69              0.0000000000
      4403       204  BUTA      C2            -13.0709031573       12.8276529516       -7.2149505325  BUTA      69              0.0000000000
      4404       204  BUTA      DC2           -13.1201283131       12.7462607139       -7.2390870190  BUTA      69              0.0000000000
      4405       204  BUTA      C3            -12.6835273677       14.2952448390       -7.4453465023  BUTA      69              0.0000000000
      4406       204  BUTA      DC3           -12.6810156289       14.2432472589       -7.4336717917  BUTA      69              0.0000000000
      4407       204  BUTA      C4            -11.5200111400       14.8041270459       -6.6609411899  BUTA      69              0.0000000000
      4408       204  BUTA      DC4           -11.5398778562       14.7918409527       -6.6623656230  BUTA      69              0.0000000000
      4409       204  BUTA      O1            -11.7017318076       14.8244765697       -5.3994890975  BUTA      69              0.0000000000
      4410       204  BUTA      DO1           -11.7086382160       14.8221325597       -5.4075383727  BUTA      69              0.0000000000
      4411       204  BUTA      O2            -10.5039490922       15.1725763699       -7.3349195020  BUTA      69              0.0000000000
      4412       204  BUTA      DO2           -10.5255769996       15.1792386454       -7.3314640186  BUTA      69              0.0000000000
      4413       204  BUTA      H1            -11.5941515244       12.0308999285       -8.6037526098  BUTA      69              0.0000000000
      4414       204  BUTA      H2            -11.0463672849       12.1012989244       -6.9111777084  BUTA      69              0.0000000000
      4415       204  BUTA      H3            -12.2137126857       10.8145138535       -7.4080339186  BUTA      69              0.0000000000
      4416       204  BUTA      H4            -13.3515033469       12.7198715802       -6.1453862710  BUTA      69              0.0000000000
      4417       204  BUTA      H5            -13.9653427165       12.5806064895       -7.8259062773  BUTA      69              0.0000000000
      4418       204  BUTA      H6            -13.5879208307       14.9079510260       -7.2428999865  BUTA      69              0.0000000000
      4419       204  BUTA      H7            -12.5087108748       14.3778214387       -8.5393946276  BUTA      69              0.0000000000
      4420       204  BUTA      H8            -10.6014605659       15.0732764341       -8.2938731170  BUTA      69              0.0000000000
      4421       204  BUTA      H9            -10.9526613123       15.1762151421       -4.8953716801  BUTA      69              0.0000000000
      4422       204  BUTA      LPO11         -12.0218412078       14.7055753054       -5.3227267288  BUTA      69              0.0000000000
      4423       204  BUTA      LPO12         -11.4157548792       14.9472000714       -5.2393137606  BUTA      69              0.0000000000
      4424       204  BUTA      LPO21         -10.5649102293       15.1291049402       -7.6768171103  BUTA      69              0.0000000000
      4425       204  BUTA      LPO22         -10.2520056372       15.2853027297       -7.1197050432  BUTA      69              0.0000000000
      4426       205  BUTA      C1              0.8127973610        0.4536559329       10.2290822014  BUTA      70              0.0000000000
      4427       205  BUTA      DC1             0.8387087400        0.4259099613       10.2044955706  BUTA      70              0.0000000000
      4428       205  BUTA      C2              2.0241047063       -0.3530518367        9.7829311151  BUTA      70              0.0000000000
      4429       205  BUTA      DC2             2.0378370061       -0.4343824518        9.8507901791  BUTA      70              0.0000000000
      4430       205  BUTA      C3              2.9357948472        0.5068824157        8.8948796941  BUTA      70              0.0000000000
      4431       205  BUTA      DC3             2.8619333285        0.4966926018        8.8619259952  BUTA      70              0.0000000000
      4432       205  BUTA      C4              2.2709321701        0.9376596457        7.6407999951  BUTA      70              0.0000000000
      4433       205  BUTA      DC4             2.2597739370        0.8018802144        7.5412262622  BUTA      70              0.0000000000
      4434       205  BUTA      O1              2.1923077533        0.0456575458        6.7461265310  BUTA      70              0.0000000000
      4435       205  BUTA      DO1             2.2144640250       -0.0354920722        6.6128418923  BUTA      70              0.0000000000
      4436       205  BUTA      O2              1.9578421527        2.1561782020        7.5527539416  BUTA      70              0.0000000000
      4437       205  BUTA      DO2             1.9888610942        2.0653857051        7.5697476179  BUTA      70              0.0000000000
      4438       205  BUTA      H1              1.1211462013        1.3531247921       10.8037105733  BUTA      70              0.0000000000
      4439       205  BUTA      H2              0.2303006492        0.8159894233        9.3551639999  BUTA      70              0.0000000000
      4440       205  BUTA      H3              0.1289235233       -0.1299471136       10.8818034728  BUTA      70              0.0000000000
      4441       205  BUTA      H4              1.6789414539       -1.2400531785        9.2098587385  BUTA      70              0.0000000000
      4442       205  BUTA      H5              2.5991865938       -0.6910142821       10.6714035170  BUTA      70              0.0000000000
      4443       205  BUTA      H6              3.8859581274       -0.0374131738        8.7071217321  BUTA      70              0.0000000000
      4444       205  BUTA      H7              3.2692831946        1.3629121119        9.5196353918  BUTA      70              0.0000000000
      4445       205  BUTA      H8              2.2227755179        2.6903637368        8.3165714109  BUTA      70              0.0000000000
      4446       205  BUTA      H9              1.7532988831        0.3423147429        5.9348148034  BUTA      70              0.0000000000
      4447       205  BUTA      LPO11           2.3378960614       -0.2514760618        6.8602127429  BUTA      70              0.0000000000
      4448       205  BUTA      LPO12           2.0318485684        0.1740795242        6.4628234328  BUTA      70              0.0000000000
      4449       205  BUTA      LPO21           2.0520361868        2.3253458873        7.8443183052  BUTA      70              0.0000000000
      4450       205  BUTA      LPO22           1.8042129851        2.2183267806        7.2444754424  BUTA      70              0.0000000000
      4451       206  BUTA      C1             26.9915990599       -7.7263175659       13.1937655638  BUTA      71              0.0000000000
      4452       206  BUTA      DC1            26.9253893344       -7.7153879215       13.1156597963  BUTA      71              0.0000000000
      4453       206  BUTA      C2             25.6946232813       -7.1297586456       12.6786670663  BUTA      71              0.0000000000
      4454       206  BUTA      DC2            25.5743482268       -7.2254805477       12.6538698155  BUTA      71              0.0000000000
      4455       206  BUTA      C3             25.9900534720       -5.9570210571       11.7542270579  BUTA      71              0.0000000000
      4456       206  BUTA      DC3            25.9798236176       -6.0003987486       11.7800906105  BUTA      71              0.0000000000
      4457       206  BUTA      C4             26.8402435247       -4.8935954050       12.3612640773  BUTA      71              0.0000000000
      4458       206  BUTA      DC4            26.8206853528       -4.9165398159       12.3481685498  BUTA      71              0.0000000000
      4459       206  BUTA      O1             26.2348379268       -4.2061285083       13.2440900923  BUTA      71              0.0000000000
      4460       206  BUTA      DO1            26.2263944472       -4.2278441039       13.2236722418  BUTA      71              0.0000000000
      4461       206  BUTA      O2             27.9784598047       -4.7119896482       11.8221282084  BUTA      71              0.0000000000
      4462       206  BUTA      DO2            27.9632540391       -4.7255571593       11.8240312236  BUTA      71              0.0000000000
      4463       206  BUTA      H1             27.6294220188       -8.1350811528       12.3811062234  BUTA      71              0.0000000000
      4464       206  BUTA      H2             27.5918393817       -6.9355847727       13.6925382634  BUTA      71              0.0000000000
      4465       206  BUTA      H3             26.8164514157       -8.5236267672       13.9473850576  BUTA      71              0.0000000000
      4466       206  BUTA      H4             25.1173332028       -6.7507697276       13.5489684885  BUTA      71              0.0000000000
      4467       206  BUTA      H5             25.1158298896       -7.9046287155       12.1319536261  BUTA      71              0.0000000000
      4468       206  BUTA      H6             25.0093603820       -5.5382843016       11.4424232819  BUTA      71              0.0000000000
      4469       206  BUTA      H7             26.4533292821       -6.3751595754       10.8350661888  BUTA      71              0.0000000000
      4470       206  BUTA      H8             28.1662035587       -5.2893336193       11.0668883645  BUTA      71              0.0000000000
      4471       206  BUTA      H9             26.7633379204       -3.4815348862       13.6109863168  BUTA      71              0.0000000000
      4472       206  BUTA      LPO11          25.9059021975       -4.3202350756       13.2798808355  BUTA      71              0.0000000000
      4473       206  BUTA      LPO12          26.4498435053       -3.9626488275       13.3744367310  BUTA      71              0.0000000000
      4474       206  BUTA      LPO21          28.0206353998       -4.9331352470       11.5541434266  BUTA      71              0.0000000000
      4475       206  BUTA      LPO22          28.1504382917       -4.4566751354       11.9886751974  BUTA      71              0.0000000000
      4476       207  BUTA      C1            -16.3353881007       11.0750067273      -14.8098228570  BUTA      72              0.0000000000
      4477       207  BUTA      DC1           -16.2996158906       11.0003464060      -14.8389737086  BUTA      72              0.0000000000
      4478       207  BUTA      C2            -15.2128907239       10.0596411328      -14.7450296687  BUTA      72              0.0000000000
      4479       207  BUTA      DC2           -15.1202193972       10.0697848590      -14.7812674870  BUTA      72              0.0000000000
      4480       207  BUTA      C3            -15.6960340331        8.7435146257      -15.3471518079  BUTA      72              0.0000000000
      4481       207  BUTA      DC3           -15.7095808352        8.7108081603      -15.3452447110  BUTA      72              0.0000000000
      4482       207  BUTA      C4            -16.9139637752        8.1079199037      -14.6978350067  BUTA      72              0.0000000000
      4483       207  BUTA      DC4           -16.9004469549        8.0718292335      -14.6795275145  BUTA      72              0.0000000000
      4484       207  BUTA      O1            -16.6496561026        7.6231876413      -13.5452522673  BUTA      72              0.0000000000
      4485       207  BUTA      DO1           -16.5929159274        7.5613584640      -13.5586966752  BUTA      72              0.0000000000
      4486       207  BUTA      O2            -17.6665715234        7.5750093301      -15.5859140894  BUTA      72              0.0000000000
      4487       207  BUTA      DO2           -17.6325035654        7.5684395480      -15.6115472721  BUTA      72              0.0000000000
      4488       207  BUTA      H1            -16.7169925985       11.1924209944      -15.8466029199  BUTA      72              0.0000000000
      4489       207  BUTA      H2            -17.1893886653       10.7601545160      -14.1727419197  BUTA      72              0.0000000000
      4490       207  BUTA      H3            -16.0083763378       12.0755372899      -14.4544035263  BUTA      72              0.0000000000
      4491       207  BUTA      H4            -14.9341561293        9.8930225229      -13.6825484855  BUTA      72              0.0000000000
      4492       207  BUTA      H5            -14.3182948903       10.4313618517      -15.2889441863  BUTA      72              0.0000000000
      4493       207  BUTA      H6            -14.7867429499        8.1088440321      -15.2785663546  BUTA      72              0.0000000000
      4494       207  BUTA      H7            -15.8476365598        8.9140027168      -16.4344748900  BUTA      72              0.0000000000
      4495       207  BUTA      H8            -17.5123759331        7.8949018573      -16.4874979685  BUTA      72              0.0000000000
      4496       207  BUTA      H9            -17.3687992653        7.1136640036      -13.1425367669  BUTA      72              0.0000000000
      4497       207  BUTA      LPO11         -16.3123294815        7.6754223156      -13.4679070057  BUTA      72              0.0000000000
      4498       207  BUTA      LPO12         -16.9374684532        7.4801452952      -13.4066776012  BUTA      72              0.0000000000
      4499       207  BUTA      LPO21         -17.5276262151        7.6210129524      -15.9038415466  BUTA      72              0.0000000000
      4500       207  BUTA      LPO22         -17.9462563760        7.4293500885      -15.4340596572  BUTA      72              0.0000000000
      4501       208  BUTA      C1             27.0724666234       17.2205844010      -25.1342046166  BUTA      73              0.0000000000
      4502       208  BUTA      DC1            27.0721212969       17.2163688584      -25.1259635681  BUTA      73              0.0000000000
      4503       208  BUTA      C2             26.2464814568       18.5029941333      -25.0647330104  BUTA      73              0.0000000000
      4504       208  BUTA      DC2            26.3359440299       18.5535066049      -25.0691340504  BUTA      73              0.0000000000
      4505       208  BUTA      C3             24.9873549175       18.3320325350      -24.1910731061  BUTA      73              0.0000000000
      4506       208  BUTA      DC3            25.0188503281       18.2949784200      -24.2289541672  BUTA      73              0.0000000000
      4507       208  BUTA      C4             24.0551352035       17.2684420651      -24.6744588104  BUTA      73              0.0000000000
      4508       208  BUTA      DC4            24.0584824449       17.2559050887      -24.6784552739  BUTA      73              0.0000000000
      4509       208  BUTA      O1             23.6014941746       17.4862355010      -25.8436639247  BUTA      73              0.0000000000
      4510       208  BUTA      DO1            23.6004942701       17.4954836558      -25.8389734299  BUTA      73              0.0000000000
      4511       208  BUTA      O2             23.9181806382       16.2215437572      -23.9532560755  BUTA      73              0.0000000000
      4512       208  BUTA      DO2            23.9231989670       16.2057279692      -23.9476365486  BUTA      73              0.0000000000
      4513       208  BUTA      H1             27.4138431407       16.9167894750      -24.1215389678  BUTA      73              0.0000000000
      4514       208  BUTA      H2             26.4496779880       16.3898977955      -25.5296980785  BUTA      73              0.0000000000
      4515       208  BUTA      H3             27.9591959106       17.3339547860      -25.7938858497  BUTA      73              0.0000000000
      4516       208  BUTA      H4             25.9210281780       18.7817755412      -26.0897608595  BUTA      73              0.0000000000
      4517       208  BUTA      H5             26.8648019746       19.3362294218      -24.6675936252  BUTA      73              0.0000000000
      4518       208  BUTA      H6             24.4817652261       19.3207900029      -24.1585349172  BUTA      73              0.0000000000
      4519       208  BUTA      H7             25.3405571753       18.1548411164      -23.1527223147  BUTA      73              0.0000000000
      4520       208  BUTA      H8             24.3948226799       16.2534426624      -23.1101927185  BUTA      73              0.0000000000
      4521       208  BUTA      H9             22.9891357699       16.8103009642      -26.1709110577  BUTA      73              0.0000000000
      4522       208  BUTA      LPO11          23.7316070787       17.7861718147      -25.9685992676  BUTA      73              0.0000000000
      4523       208  BUTA      LPO12          23.3860576928       17.2272631080      -25.9386398268  BUTA      73              0.0000000000
      4524       208  BUTA      LPO21          24.1187412038       16.2459845093      -23.6674622527  BUTA      73              0.0000000000
      4525       208  BUTA      LPO22          23.6919762656       16.0010784466      -24.1040096116  BUTA      73              0.0000000000
      4526       209  BUTA      C1             -5.9879684556       16.0817874650       -8.4886002779  BUTA      74              0.0000000000
      4527       209  BUTA      DC1            -5.9612718960       16.0832493043       -8.4936781216  BUTA      74              0.0000000000
      4528       209  BUTA      C2             -7.1521413380       16.0212156743       -7.5027689623  BUTA      74              0.0000000000
      4529       209  BUTA      DC2            -7.1292758214       16.1178133362       -7.5351311762  BUTA      74              0.0000000000
      4530       209  BUTA      C3             -6.9308859252       15.0430200217       -6.3248233177  BUTA      74              0.0000000000
      4531       209  BUTA      DC3            -6.8899685780       15.0187228650       -6.3799967692  BUTA      74              0.0000000000
      4532       209  BUTA      C4             -6.6743457675       13.6096084968       -6.6876409057  BUTA      74              0.0000000000
      4533       209  BUTA      DC4            -6.6470086363       13.5889608725       -6.7151328068  BUTA      74              0.0000000000
      4534       209  BUTA      O1             -7.5979926006       12.9762871824       -7.2980943196  BUTA      74              0.0000000000
      4535       209  BUTA      DO1            -7.5511157094       12.9618005514       -7.3224044438  BUTA      74              0.0000000000
      4536       209  BUTA      O2             -5.4696012185       13.1953470377       -6.5808645964  BUTA      74              0.0000000000
      4537       209  BUTA      DO2            -5.4582947732       13.1761684011       -6.5975738632  BUTA      74              0.0000000000
      4538       209  BUTA      H1             -5.0708825502       16.4599277339       -7.9883159795  BUTA      74              0.0000000000
      4539       209  BUTA      H2             -5.7662752837       15.0671131319       -8.8830735170  BUTA      74              0.0000000000
      4540       209  BUTA      H3             -6.2160023518       16.7330780727       -9.3593138284  BUTA      74              0.0000000000
      4541       209  BUTA      H4             -8.0690177004       15.6888749971       -8.0349422540  BUTA      74              0.0000000000
      4542       209  BUTA      H5             -7.3569007919       17.0326027777       -7.0910764883  BUTA      74              0.0000000000
      4543       209  BUTA      H6             -7.8314454837       15.1442842966       -5.6821266332  BUTA      74              0.0000000000
      4544       209  BUTA      H7             -6.1038571722       15.4860320673       -5.7297730934  BUTA      74              0.0000000000
      4545       209  BUTA      H8             -4.8624061306       13.8381898094       -6.1845966362  BUTA      74              0.0000000000
      4546       209  BUTA      H9             -7.4024291551       12.0437403660       -7.4743678968  BUTA      74              0.0000000000
      4547       209  BUTA      LPO11          -7.8737320964       13.1858858460       -7.3484543299  BUTA      74              0.0000000000
      4548       209  BUTA      LPO12          -7.4956250733       12.6478117369       -7.3623187006  BUTA      74              0.0000000000
      4549       209  BUTA      LPO21          -5.2634154162       13.4546492410       -6.4679496624  BUTA      74              0.0000000000
      4550       209  BUTA      LPO22          -5.4501748936       12.8584662232       -6.6737835650  BUTA      74              0.0000000000
      4551       210  BUTA      C1             22.8628574658        0.0075604994        7.4372674972  BUTA      75              0.0000000000
      4552       210  BUTA      DC1            22.7987870126       -0.0358143182        7.4317139272  BUTA      75              0.0000000000
      4553       210  BUTA      C2             21.4865968124       -0.5622290305        7.1182396986  BUTA      75              0.0000000000
      4554       210  BUTA      DC2            21.4024636966       -0.5057861497        7.0974722818  BUTA      75              0.0000000000
      4555       210  BUTA      C3             21.2830426003       -1.9254862685        7.7930550468  BUTA      75              0.0000000000
      4556       210  BUTA      DC3            21.3102928462       -1.9431484935        7.7807047021  BUTA      75              0.0000000000
      4557       210  BUTA      C4             22.3112324589       -2.9595427847        7.4414367330  BUTA      75              0.0000000000
      4558       210  BUTA      DC4            22.2737977241       -2.9917557978        7.2802067282  BUTA      75              0.0000000000
      4559       210  BUTA      O1             22.3100291752       -3.3488210069        6.2353760862  BUTA      75              0.0000000000
      4560       210  BUTA      DO1            22.3508792861       -3.3928536979        6.0814258088  BUTA      75              0.0000000000
      4561       210  BUTA      O2             22.9878898102       -3.3884160100        8.4095352092  BUTA      75              0.0000000000
      4562       210  BUTA      DO2            22.9096757738       -3.3408549310        8.3406451613  BUTA      75              0.0000000000
      4563       210  BUTA      H1             23.0108720319        0.1188061619        8.5327295419  BUTA      75              0.0000000000
      4564       210  BUTA      H2             23.6727387384       -0.6614728471        7.0755940180  BUTA      75              0.0000000000
      4565       210  BUTA      H3             23.0196562833        1.0039762185        6.9715520834  BUTA      75              0.0000000000
      4566       210  BUTA      H4             21.4106135342       -0.6971877362        6.0180880312  BUTA      75              0.0000000000
      4567       210  BUTA      H5             20.6988332252        0.1436498589        7.4580698388  BUTA      75              0.0000000000
      4568       210  BUTA      H6             20.2496510782       -2.2668410453        7.5696722363  BUTA      75              0.0000000000
      4569       210  BUTA      H7             21.2882997566       -1.6942244856        8.8797064859  BUTA      75              0.0000000000
      4570       210  BUTA      H8             22.7912107493       -2.9657612018        9.2590299179  BUTA      75              0.0000000000
      4571       210  BUTA      H9             22.9415080394       -4.0598133894        6.0491362513  BUTA      75              0.0000000000
      4572       210  BUTA      LPO11          22.0595087678       -3.1825969409        6.0561860046  BUTA      75              0.0000000000
      4573       210  BUTA      LPO12          22.5603222674       -3.5885845718        6.1867263077  BUTA      75              0.0000000000
      4574       210  BUTA      LPO21          22.8863209106       -3.2314781390        8.7054309058  BUTA      75              0.0000000000
      4575       210  BUTA      LPO22          23.2183803445       -3.6270658985        8.2980886106  BUTA      75              0.0000000000
      4576       211  BUTA      C1             25.2146064107       -9.9150172154        2.2298301863  BUTA      76              0.0000000000
      4577       211  BUTA      DC1            25.2331579532       -9.9242227225        2.2222033759  BUTA      76              0.0000000000
      4578       211  BUTA      C2             26.0629169000      -11.1247966655        2.6101899924  BUTA      76              0.0000000000
      4579       211  BUTA      DC2            25.9754830991      -11.1935159664        2.6260007035  BUTA      76              0.0000000000
      4580       211  BUTA      C3             27.3820884916      -10.7050333106        3.2773284991  BUTA      76              0.0000000000
      4581       211  BUTA      DC3            27.3342961186      -10.6924502582        3.2593753782  BUTA      76              0.0000000000
      4582       211  BUTA      C4             28.2324947299       -9.7750964641        2.4768145441  BUTA      76              0.0000000000
      4583       211  BUTA      DC4            28.2166082604       -9.7807704249        2.4923507720  BUTA      76              0.0000000000
      4584       211  BUTA      O1             28.6061787927      -10.2305022554        1.3485681471  BUTA      76              0.0000000000
      4585       211  BUTA      DO1            28.5914352007      -10.2275845128        1.3690484164  BUTA      76              0.0000000000
      4586       211  BUTA      O2             28.3998620330       -8.6159619395        2.9816897745  BUTA      76              0.0000000000
      4587       211  BUTA      DO2            28.3928117757       -8.6265216560        2.9930435291  BUTA      76              0.0000000000
      4588       211  BUTA      H1             24.9272094380       -9.3278839597        3.1281611510  BUTA      76              0.0000000000
      4589       211  BUTA      H2             25.7901334619       -9.2343758306        1.5666432442  BUTA      76              0.0000000000
      4590       211  BUTA      H3             24.2832046137      -10.2156627054        1.7040698018  BUTA      76              0.0000000000
      4591       211  BUTA      H4             26.3158077168      -11.6999273854        1.6938975216  BUTA      76              0.0000000000
      4592       211  BUTA      H5             25.4880417418      -11.7865336586        3.2927906848  BUTA      76              0.0000000000
      4593       211  BUTA      H6             27.9501725264      -11.6296077265        3.5155797947  BUTA      76              0.0000000000
      4594       211  BUTA      H7             27.0938928220      -10.2746600748        4.2602034321  BUTA      76              0.0000000000
      4595       211  BUTA      H8             27.9570676371       -8.4765630034        3.8322555036  BUTA      76              0.0000000000
      4596       211  BUTA      H9             29.1922792504       -9.6435405625        0.8476457735  BUTA      76              0.0000000000
      4597       211  BUTA      LPO11          28.4795684652      -10.5534516097        1.3019469125  BUTA      76              0.0000000000
      4598       211  BUTA      LPO12          28.8030802071       -9.9932160890        1.1829628688  BUTA      76              0.0000000000
      4599       211  BUTA      LPO21          28.2286878404       -8.5921019445        3.2860417030  BUTA      76              0.0000000000
      4600       211  BUTA      LPO22          28.6024552591       -8.4222233611        2.7721155680  BUTA      76              0.0000000000
      4601       212  BUTA      C1             19.3322713818       -9.5369876279      -24.3881309431  BUTA      77              0.0000000000
      4602       212  BUTA      DC1            19.3169520841       -9.5323787111      -24.3930681610  BUTA      77              0.0000000000
      4603       212  BUTA      C2             19.3560904661       -9.7140164603      -22.8697465487  BUTA      77              0.0000000000
      4604       212  BUTA      DC2            19.3128974291       -9.5977967562      -22.8546244597  BUTA      77              0.0000000000
      4605       212  BUTA      C3             20.3004964116      -10.8427285284      -22.4309379967  BUTA      77              0.0000000000
      4606       212  BUTA      DC3            20.2455885538      -10.8054049926      -22.4805220747  BUTA      77              0.0000000000
      4607       212  BUTA      C4             20.0110598967      -12.1998233608      -23.0046861302  BUTA      77              0.0000000000
      4608       212  BUTA      DC4            19.9756222916      -12.1792049750      -22.9962076282  BUTA      77              0.0000000000
      4609       212  BUTA      O1             18.8278040339      -12.6211861136      -22.7622013791  BUTA      77              0.0000000000
      4610       212  BUTA      DO1            18.7949959809      -12.6076434791      -22.7726057944  BUTA      77              0.0000000000
      4611       212  BUTA      O2             20.7974195161      -12.5562480950      -23.9405323388  BUTA      77              0.0000000000
      4612       212  BUTA      DO2            20.7765440457      -12.5426130290      -23.9277521740  BUTA      77              0.0000000000
      4613       212  BUTA      H1             20.3391605899       -9.2426102154      -24.7539684229  BUTA      77              0.0000000000
      4614       212  BUTA      H2             19.0871603579      -10.4996740971      -24.8856008900  BUTA      77              0.0000000000
      4615       212  BUTA      H3             18.5958380205       -8.7692682028      -24.7084335913  BUTA      77              0.0000000000
      4616       212  BUTA      H4             18.3415769636       -9.9636852156      -22.4919253379  BUTA      77              0.0000000000
      4617       212  BUTA      H5             19.6726833435       -8.7587692474      -22.3990101976  BUTA      77              0.0000000000
      4618       212  BUTA      H6             20.3070602772      -10.8811282163      -21.3206212043  BUTA      77              0.0000000000
      4619       212  BUTA      H7             21.3202046421      -10.4976418789      -22.7055856429  BUTA      77              0.0000000000
      4620       212  BUTA      H8             21.5657487236      -11.9779989746      -24.0599441630  BUTA      77              0.0000000000
      4621       212  BUTA      H9             18.6418368779      -13.4986960933      -23.1287439445  BUTA      77              0.0000000000
      4622       212  BUTA      LPO11          18.6521852034      -12.3835177444      -22.5746599899  BUTA      77              0.0000000000
      4623       212  BUTA      LPO12          18.7819714977      -12.9377143138      -22.9043607160  BUTA      77              0.0000000000
      4624       212  BUTA      LPO21          21.0336184098      -12.3050475076      -24.0006018613  BUTA      77              0.0000000000
      4625       212  BUTA      LPO22          20.7090809068      -12.8744677169      -24.0564312702  BUTA      77              0.0000000000
      4626       213  BUTA      C1              4.0932698135       13.2897107840       10.5973705352  BUTA      78              0.0000000000
      4627       213  BUTA      DC1             4.1042275855       13.2850988848       10.6141378673  BUTA      78              0.0000000000
      4628       213  BUTA      C2              5.1602731265       13.1465153726       11.6795795716  BUTA      78              0.0000000000
      4629       213  BUTA      DC2             5.2212433251       13.0669546174       11.6301329746  BUTA      78              0.0000000000
      4630       213  BUTA      C3              4.6217060549       13.5216730096       13.0696505118  BUTA      78              0.0000000000
      4631       213  BUTA      DC3             4.6226806910       13.5136916408       13.0249143246  BUTA      78              0.0000000000
      4632       213  BUTA      C4              4.0319004383       14.8964316606       13.1845722826  BUTA      78              0.0000000000
      4633       213  BUTA      DC4             4.0584298553       14.8795303610       13.1784839693  BUTA      78              0.0000000000
      4634       213  BUTA      O1              4.8519735769       15.8654671618       13.1052907062  BUTA      78              0.0000000000
      4635       213  BUTA      DO1             4.8452037246       15.8593906121       13.1039917551  BUTA      78              0.0000000000
      4636       213  BUTA      O2              2.7754490497       14.9473327705       13.3512069305  BUTA      78              0.0000000000
      4637       213  BUTA      DO2             2.8095839103       14.9451920240       13.3498192429  BUTA      78              0.0000000000
      4638       213  BUTA      H1              3.2239737204       12.6282924627       10.8002771804  BUTA      78              0.0000000000
      4639       213  BUTA      H2              3.7090621984       14.3321090959       10.5868221411  BUTA      78              0.0000000000
      4640       213  BUTA      H3              4.4862244904       13.0580152459        9.5843429936  BUTA      78              0.0000000000
      4641       213  BUTA      H4              5.9949454053       13.8438297154       11.4528729419  BUTA      78              0.0000000000
      4642       213  BUTA      H5              5.5561694267       12.1085212454       11.6920420174  BUTA      78              0.0000000000
      4643       213  BUTA      H6              5.4507431177       13.3789484102       13.7953558500  BUTA      78              0.0000000000
      4644       213  BUTA      H7              3.8773358266       12.7341852868       13.3147975076  BUTA      78              0.0000000000
      4645       213  BUTA      H8              2.3458468100       14.0820367620       13.4264779966  BUTA      78              0.0000000000
      4646       213  BUTA      H9              4.4553503468       16.7392096923       13.2402907200  BUTA      78              0.0000000000
      4647       213  BUTA      LPO11           5.1769773494       15.7438224560       13.0597372936  BUTA      78              0.0000000000
      4648       213  BUTA      LPO12           4.6813299412       16.1695107848       13.1359211632  BUTA      78              0.0000000000
      4649       213  BUTA      LPO21           2.6426330091       14.6236281816       13.3598809453  BUTA      78              0.0000000000
      4650       213  BUTA      LPO22           2.6711202946       15.2806445223       13.3739838255  BUTA      78              0.0000000000
      4651       214  BUTA      C1             13.5419557136       -6.1812485940       23.9080204071  BUTA      79              0.0000000000
      4652       214  BUTA      DC1            13.5515618491       -6.1833101866       23.9058091701  BUTA      79              0.0000000000
      4653       214  BUTA      C2             12.6437665783       -7.4138012583       23.8770934183  BUTA      79              0.0000000000
      4654       214  BUTA      DC2            12.6355343588       -7.3947338178       23.7786487023  BUTA      79              0.0000000000
      4655       214  BUTA      C3             11.9023886269       -7.6463727781       25.2137068428  BUTA      79              0.0000000000
      4656       214  BUTA      DC3            11.9515745072       -7.6314973106       25.2034747724  BUTA      79              0.0000000000
      4657       214  BUTA      C4             12.7255254527       -7.8209386155       26.4643051582  BUTA      79              0.0000000000
      4658       214  BUTA      DC4            12.7228239644       -7.7984513598       26.4769839569  BUTA      79              0.0000000000
      4659       214  BUTA      O1             13.3119787239       -8.9471731797       26.5715942566  BUTA      79              0.0000000000
      4660       214  BUTA      DO1            13.2955861972       -8.9307928120       26.5722338807  BUTA      79              0.0000000000
      4661       214  BUTA      O2             12.6180940563       -6.9078068081       27.3555484492  BUTA      79              0.0000000000
      4662       214  BUTA      DO2            12.6118233844       -6.8969016160       27.3799840250  BUTA      79              0.0000000000
      4663       214  BUTA      H1             12.9345223111       -5.2639775873       24.0628091737  BUTA      79              0.0000000000
      4664       214  BUTA      H2             14.2619044886       -6.2543237126       24.7510238403  BUTA      79              0.0000000000
      4665       214  BUTA      H3             14.1170759755       -6.0480575760       22.9668414453  BUTA      79              0.0000000000
      4666       214  BUTA      H4             13.2562408637       -8.3160362891       23.6645653051  BUTA      79              0.0000000000
      4667       214  BUTA      H5             11.8920490527       -7.3109021056       23.0655186976  BUTA      79              0.0000000000
      4668       214  BUTA      H6             11.2767942409       -8.5485295376       25.0432197564  BUTA      79              0.0000000000
      4669       214  BUTA      H7             11.1725716014       -6.8137910455       25.3058793323  BUTA      79              0.0000000000
      4670       214  BUTA      H8             12.0219819525       -6.1833519325       27.1131098119  BUTA      79              0.0000000000
      4671       214  BUTA      H9             13.8664582790       -9.0454054449       27.3601776986  BUTA      79              0.0000000000
      4672       214  BUTA      LPO11          13.2395704796       -9.1468250662       26.2933925844  BUTA      79              0.0000000000
      4673       214  BUTA      LPO12          13.4945690975       -8.9591168774       26.8699532745  BUTA      79              0.0000000000
      4674       214  BUTA      LPO21          12.3931685115       -6.6619359832       27.2485155722  BUTA      79              0.0000000000
      4675       214  BUTA      LPO22          12.8229331471       -6.9829493292       27.6292171328  BUTA      79              0.0000000000
      4676       215  BUTA      C1              5.2476001826        3.4539390603       24.4341845933  BUTA      80              0.0000000000
      4677       215  BUTA      DC1             5.2808577579        3.4677513209       24.4504195881  BUTA      80              0.0000000000
      4678       215  BUTA      C2              5.2917828731        4.1280538445       25.8032954601  BUTA      80              0.0000000000
      4679       215  BUTA      DC2             5.2474721089        4.0491822315       25.8474962140  BUTA      80              0.0000000000
      4680       215  BUTA      C3              5.4254870438        5.6571209746       25.7055630311  BUTA      80              0.0000000000
      4681       215  BUTA      DC3             5.4640694856        5.6194111894       25.6830472965  BUTA      80              0.0000000000
      4682       215  BUTA      C4              6.6877845441        6.1866042612       25.1017963567  BUTA      80              0.0000000000
      4683       215  BUTA      DC4             6.7210246781        6.1651512032       25.1272925486  BUTA      80              0.0000000000
      4684       215  BUTA      O1              7.7685899520        5.8585343764       25.7026847222  BUTA      80              0.0000000000
      4685       215  BUTA      DO1             7.8011703139        5.8422880932       25.7028626095  BUTA      80              0.0000000000
      4686       215  BUTA      O2              6.5831389775        6.7905290671       23.9868251043  BUTA      80              0.0000000000
      4687       215  BUTA      DO2             6.5930983913        6.7656364314       24.0114010843  BUTA      80              0.0000000000
      4688       215  BUTA      H1              4.3885750517        3.8325756156       23.8400203201  BUTA      80              0.0000000000
      4689       215  BUTA      H2              6.1658453621        3.6815189545       23.8516434528  BUTA      80              0.0000000000
      4690       215  BUTA      H3              5.1437577126        2.3500524953       24.5046983815  BUTA      80              0.0000000000
      4691       215  BUTA      H4              6.1446570733        3.7408632416       26.4007986285  BUTA      80              0.0000000000
      4692       215  BUTA      H5              4.3453366378        3.9080302779       26.3419513370  BUTA      80              0.0000000000
      4693       215  BUTA      H6              5.2737382321        6.0605896915       26.7295289942  BUTA      80              0.0000000000
      4694       215  BUTA      H7              4.5205800129        5.9767764397       25.1458446653  BUTA      80              0.0000000000
      4695       215  BUTA      H8              5.6740244882        6.8720780652       23.6615227723  BUTA      80              0.0000000000
      4696       215  BUTA      H9              8.5680381473        6.2228377754       25.2938734977  BUTA      80              0.0000000000
      4697       215  BUTA      LPO11           7.6952168229        5.6582898300       25.9802068034  BUTA      80              0.0000000000
      4698       215  BUTA      LPO12           8.0442158687        5.9973866979       25.5376078102  BUTA      80              0.0000000000
      4699       215  BUTA      LPO21           6.2484453584        6.7959994180       23.8845986078  BUTA      80              0.0000000000
      4700       215  BUTA      LPO22           6.8981415396        6.8986986742       23.8792485178  BUTA      80              0.0000000000
      4701       216  BUTA      C1              1.3172923469       18.9933213088       24.5182711963  BUTA      81              0.0000000000
      4702       216  BUTA      DC1             1.3993700927       18.9651064291       24.5685949894  BUTA      81              0.0000000000
      4703       216  BUTA      C2              2.5585742591       18.1173060765       24.6234977842  BUTA      81              0.0000000000
      4704       216  BUTA      DC2             2.5444445260       18.0104355839       24.6635151203  BUTA      81              0.0000000000
      4705       216  BUTA      C3              3.7854788394       18.8666077265       25.1792366298  BUTA      81              0.0000000000
      4706       216  BUTA      DC3             3.7594179557       18.8834600190       25.1966143588  BUTA      81              0.0000000000
      4707       216  BUTA      C4              4.1524943317       20.1751993391       24.5305563322  BUTA      81              0.0000000000
      4708       216  BUTA      DC4             4.1511376701       20.1874147779       24.5673438288  BUTA      81              0.0000000000
      4709       216  BUTA      O1              4.4545904376       20.1192306426       23.2972520572  BUTA      81              0.0000000000
      4710       216  BUTA      DO1             4.4555069382       20.1139980858       23.3355412721  BUTA      81              0.0000000000
      4711       216  BUTA      O2              4.2789152584       21.1524452878       25.3474501993  BUTA      81              0.0000000000
      4712       216  BUTA      DO2             4.2898359569       21.1617437030       25.3771303517  BUTA      81              0.0000000000
      4713       216  BUTA      H1              0.9588915883       19.3601793906       25.5038091440  BUTA      81              0.0000000000
      4714       216  BUTA      H2              1.5164502994       19.8891970849       23.8921212899  BUTA      81              0.0000000000
      4715       216  BUTA      H3              0.4669151185       18.4599489860       24.0421477515  BUTA      81              0.0000000000
      4716       216  BUTA      H4              2.8150517823       17.7797828564       23.5965516526  BUTA      81              0.0000000000
      4717       216  BUTA      H5              2.3474992980       17.2184958687       25.2414853013  BUTA      81              0.0000000000
      4718       216  BUTA      H6              4.6371346795       18.1586226939       25.0911427955  BUTA      81              0.0000000000
      4719       216  BUTA      H7              3.6071983827       18.9808569944       26.2698713918  BUTA      81              0.0000000000
      4720       216  BUTA      H8              4.0075623855       20.9550899129       26.2565043640  BUTA      81              0.0000000000
      4721       216  BUTA      H9              4.7493088917       20.9544666342       22.9042089665  BUTA      81              0.0000000000
      4722       216  BUTA      LPO11           4.4319466182       19.7890679053       23.1833230252  BUTA      81              0.0000000000
      4723       216  BUTA      LPO12           4.5341392330       20.4388507173       23.1788671046  BUTA      81              0.0000000000
      4724       216  BUTA      LPO21           4.2174591656       21.0438408140       25.6744490019  BUTA      81              0.0000000000
      4725       216  BUTA      LPO22           4.3640180755       21.4438412191       25.1732493906  BUTA      81              0.0000000000
      4726       217  BUTA      C1              0.1486248345      -25.6859294360       26.9206568364  BUTA      82              0.0000000000
      4727       217  BUTA      DC1             0.1550359251      -25.6756061657       26.9248218738  BUTA      82              0.0000000000
      4728       217  BUTA      C2             -0.3676100073      -24.2765324947       27.1766146185  BUTA      82              0.0000000000
      4729       217  BUTA      DC2            -0.3996199752      -24.3034775620       27.2383991482  BUTA      82              0.0000000000
      4730       217  BUTA      C3             -0.7034584522      -23.5739829087       25.8524043516  BUTA      82              0.0000000000
      4731       217  BUTA      DC3            -0.6685210896      -23.5865849647       25.8546575543  BUTA      82              0.0000000000
      4732       217  BUTA      C4              0.4481748827      -23.4182587182       24.8998132969  BUTA      82              0.0000000000
      4733       217  BUTA      DC4             0.5011101150      -23.3485134186       24.9575966382  BUTA      82              0.0000000000
      4734       217  BUTA      O1              1.3187098859      -22.5856618601       25.2984049238  BUTA      82              0.0000000000
      4735       217  BUTA      DO1             1.3656849494      -22.5156898887       25.3198459275  BUTA      82              0.0000000000
      4736       217  BUTA      O2              0.3370906991      -23.9183911495       23.7427762843  BUTA      82              0.0000000000
      4737       217  BUTA      DO2             0.3334570039      -23.8743424796       23.8098793584  BUTA      82              0.0000000000
      4738       217  BUTA      H1             -0.5854971881      -26.2840068983       26.3395465136  BUTA      82              0.0000000000
      4739       217  BUTA      H2              1.0742563804      -25.6475955960       26.3074213522  BUTA      82              0.0000000000
      4740       217  BUTA      H3              0.3591492916      -26.2184520334       27.8727178303  BUTA      82              0.0000000000
      4741       217  BUTA      H4              0.4039868007      -23.6809152173       27.7097181972  BUTA      82              0.0000000000
      4742       217  BUTA      H5             -1.2682762537      -24.3117673383       27.8261373806  BUTA      82              0.0000000000
      4743       217  BUTA      H6             -1.1389075901      -22.5902361888       26.1297983690  BUTA      82              0.0000000000
      4744       217  BUTA      H7             -1.5438738083      -24.1466960061       25.4051653357  BUTA      82              0.0000000000
      4745       217  BUTA      H8             -0.4794070316      -24.4212832493       23.6035211522  BUTA      82              0.0000000000
      4746       217  BUTA      H9              2.0387777621      -22.4328291201       24.6682419233  BUTA      82              0.0000000000
      4747       217  BUTA      LPO11           1.2234335243      -22.4515016784       25.6073118039  BUTA      82              0.0000000000
      4748       217  BUTA      LPO12           1.5782467983      -22.5627200092       25.0647079778  BUTA      82              0.0000000000
      4749       217  BUTA      LPO21           0.0253311621      -24.0738389547       23.7089832231  BUTA      82              0.0000000000
      4750       217  BUTA      LPO22           0.6278328723      -23.8575694638       23.5576554825  BUTA      82              0.0000000000
      4751       218  BUTA      C1             -8.0708037642      -12.1620878655       12.9009174776  BUTA      83              0.0000000000
      4752       218  BUTA      DC1            -8.0948283455      -12.1783765220       12.8925321537  BUTA      83              0.0000000000
      4753       218  BUTA      C2             -9.3947128246      -11.6569468168       12.3299865628  BUTA      83              0.0000000000
      4754       218  BUTA      DC2            -9.3962763822      -11.5968778710       12.3530447379  BUTA      83              0.0000000000
      4755       218  BUTA      C3            -10.4707132379      -12.7599030436       12.2456950673  BUTA      83              0.0000000000
      4756       218  BUTA      DC3           -10.4445056360      -12.7766106363       12.2247339061  BUTA      83              0.0000000000
      4757       218  BUTA      C4            -10.1446461391      -13.9445779792       11.3772102045  BUTA      83              0.0000000000
      4758       218  BUTA      DC4           -10.1441403205      -13.9171085005       11.3041517065  BUTA      83              0.0000000000
      4759       218  BUTA      O1            -10.1323919253      -13.7252896302       10.1128423077  BUTA      83              0.0000000000
      4760       218  BUTA      DO1           -10.1399755349      -13.7132018766       10.0474286521  BUTA      83              0.0000000000
      4761       218  BUTA      O2            -10.0769914512      -15.0639153337       11.9778480277  BUTA      83              0.0000000000
      4762       218  BUTA      DO2           -10.0874366086      -15.0174865114       11.9646522287  BUTA      83              0.0000000000
      4763       218  BUTA      H1             -8.1947718157      -12.5426103303       13.9373322483  BUTA      83              0.0000000000
      4764       218  BUTA      H2             -7.6714726241      -12.9994735416       12.2896557738  BUTA      83              0.0000000000
      4765       218  BUTA      H3             -7.3101152443      -11.3527361371       12.9258925750  BUTA      83              0.0000000000
      4766       218  BUTA      H4             -9.2155766783      -11.2587936281       11.3083676122  BUTA      83              0.0000000000
      4767       218  BUTA      H5             -9.7684225531      -10.8169110222       12.9536867332  BUTA      83              0.0000000000
      4768       218  BUTA      H6            -11.4059672844      -12.2609280346       11.9130619203  BUTA      83              0.0000000000
      4769       218  BUTA      H7            -10.6763947742      -13.0532959796       13.2973303133  BUTA      83              0.0000000000
      4770       218  BUTA      H8            -10.2058271270      -15.0125114726       12.9368683673  BUTA      83              0.0000000000
      4771       218  BUTA      H9             -9.9244551270      -14.5106800870        9.5847465604  BUTA      83              0.0000000000
      4772       218  BUTA      LPO11         -10.2089310423      -13.3898224857       10.0487832838  BUTA      83              0.0000000000
      4773       218  BUTA      LPO12         -10.0535666498      -14.0198461180        9.9410195751  BUTA      83              0.0000000000
      4774       218  BUTA      LPO21         -10.1412690743      -15.0206920748       12.3191691918  BUTA      83              0.0000000000
      4775       218  BUTA      LPO22          -9.9999810376      -15.3178008324       11.7495684848  BUTA      83              0.0000000000
      4776       219  BUTA      C1             -0.9761327652       -1.6536753819      -12.4393575419  BUTA      84              0.0000000000
      4777       219  BUTA      DC1            -0.9817852376       -1.6617250131      -12.4366501987  BUTA      84              0.0000000000
      4778       219  BUTA      C2              0.2099351685       -0.7591294820      -12.7889037053  BUTA      84              0.0000000000
      4779       219  BUTA      DC2             0.1398998438       -0.6829503339      -12.7893052303  BUTA      84              0.0000000000
      4780       219  BUTA      C3              1.3659125580       -1.5392454756      -13.4444978872  BUTA      84              0.0000000000
      4781       219  BUTA      DC3             1.3085145839       -1.5509208010      -13.3726915731  BUTA      84              0.0000000000
      4782       219  BUTA      C4              2.0238997893       -2.6185421290      -12.6207401825  BUTA      84              0.0000000000
      4783       219  BUTA      DC4             2.0341543635       -2.5910700080      -12.5259420728  BUTA      84              0.0000000000
      4784       219  BUTA      O1              2.3763768902       -2.2207795854      -11.4539600063  BUTA      84              0.0000000000
      4785       219  BUTA      DO1             2.3776823731       -2.1631931068      -11.3592641830  BUTA      84              0.0000000000
      4786       219  BUTA      O2              1.8253689901       -3.8283156338      -12.9893383622  BUTA      84              0.0000000000
      4787       219  BUTA      DO2             1.8322306747       -3.7926875305      -12.9808583982  BUTA      84              0.0000000000
      4788       219  BUTA      H1             -1.3894551848       -2.1249815495      -13.3566121821  BUTA      84              0.0000000000
      4789       219  BUTA      H2             -0.6476057824       -2.4733931642      -11.7652256713  BUTA      84              0.0000000000
      4790       219  BUTA      H3             -1.7915578533       -1.0875868367      -11.9404119686  BUTA      84              0.0000000000
      4791       219  BUTA      H4              0.6007946070       -0.2750596142      -11.8684547592  BUTA      84              0.0000000000
      4792       219  BUTA      H5             -0.1206922702        0.0526414442      -13.4715708722  BUTA      84              0.0000000000
      4793       219  BUTA      H6              2.1214626108       -0.7830184896      -13.7471294509  BUTA      84              0.0000000000
      4794       219  BUTA      H7              0.9657804688       -1.9292889329      -14.4047485905  BUTA      84              0.0000000000
      4795       219  BUTA      H8              1.3210731411       -3.9126876330      -13.8124592904  BUTA      84              0.0000000000
      4796       219  BUTA      H9              2.8258353382       -2.9083567355      -10.9399699614  BUTA      84              0.0000000000
      4797       219  BUTA      LPO11           2.2920271864       -1.8837166184      -11.4118448816  BUTA      84              0.0000000000
      4798       219  BUTA      LPO12           2.5265457080       -2.4835671508      -11.2781987432  BUTA      84              0.0000000000
      4799       219  BUTA      LPO21           1.6202988094       -3.8349410874      -13.2728913985  BUTA      84              0.0000000000
      4800       219  BUTA      LPO22           1.9933104037       -4.0479391990      -12.7747196977  BUTA      84              0.0000000000
      4801       220  BUTA      C1             12.5396426813       17.6537802195        4.7019337640  BUTA      85              0.0000000000
      4802       220  BUTA      DC1            12.5375185126       17.6551991149        4.6723986591  BUTA      85              0.0000000000
      4803       220  BUTA      C2             11.8775384522       16.6012269237        3.8153323946  BUTA      85              0.0000000000
      4804       220  BUTA      DC2            11.9604918552       16.5420349563        3.8177870250  BUTA      85              0.0000000000
      4805       220  BUTA      C3             10.9474052703       17.2092698408        2.7513083491  BUTA      85              0.0000000000
      4806       220  BUTA      DC3            10.9693051388       17.2137689540        2.7723707667  BUTA      85              0.0000000000
      4807       220  BUTA      C4              9.8927106253       18.1563054677        3.2469434335  BUTA      85              0.0000000000
      4808       220  BUTA      DC4             9.9150147829       18.1541625106        3.2289239090  BUTA      85              0.0000000000
      4809       220  BUTA      O1              8.8778996714       17.5819962089        3.7487258431  BUTA      85              0.0000000000
      4810       220  BUTA      DO1             8.9027233962       17.5952435662        3.7131402595  BUTA      85              0.0000000000
      4811       220  BUTA      O2              9.9829154404       19.3366124703        2.7698949557  BUTA      85              0.0000000000
      4812       220  BUTA      DO2             9.9905799384       19.3276881087        2.7506790848  BUTA      85              0.0000000000
      4813       220  BUTA      H1             13.2395666657       18.2929331657        4.1223555307  BUTA      85              0.0000000000
      4814       220  BUTA      H2             11.7787688341       18.3245357226        5.1552317275  BUTA      85              0.0000000000
      4815       220  BUTA      H3             13.1109186469       17.1902531989        5.5344645289  BUTA      85              0.0000000000
      4816       220  BUTA      H4             11.2482945928       15.9384231164        4.4470477413  BUTA      85              0.0000000000
      4817       220  BUTA      H5             12.6468854401       15.9660387144        3.3264948439  BUTA      85              0.0000000000
      4818       220  BUTA      H6             10.4791263363       16.3420927913        2.2384342859  BUTA      85              0.0000000000
      4819       220  BUTA      H7             11.5997354572       17.6793226535        1.9846032683  BUTA      85              0.0000000000
      4820       220  BUTA      H8             10.7744764541       19.4968667502        2.2344411973  BUTA      85              0.0000000000
      4821       220  BUTA      H9              8.1994872077       18.1771546119        4.1015770930  BUTA      85              0.0000000000
      4822       220  BUTA      LPO11           8.9180294383       17.2345720787        3.7350848915  BUTA      85              0.0000000000
      4823       220  BUTA      LPO12           8.6463772007       17.8211059763        3.8570026398  BUTA      85              0.0000000000
      4824       220  BUTA      LPO21          10.2551307289       19.3567014150        2.5508167253  BUTA      85              0.0000000000
      4825       220  BUTA      LPO22           9.7276217221       19.5379379574        2.8994834029  BUTA      85              0.0000000000
      4826       221  BUTA      C1            -11.5659555330      -11.8576992513       20.6927492519  BUTA      86              0.0000000000
      4827       221  BUTA      DC1           -11.5330170257      -11.8748813441       20.6545024149  BUTA      86              0.0000000000
      4828       221  BUTA      C2            -10.8663309094      -12.3336935908       19.4331609881  BUTA      86              0.0000000000
      4829       221  BUTA      DC2           -10.9145040534      -12.4046034945       19.3890375729  BUTA      86              0.0000000000
      4830       221  BUTA      C3             -9.3727606510      -11.9712929571       19.4938097539  BUTA      86              0.0000000000
      4831       221  BUTA      DC3            -9.3920206967      -11.9596963813       19.4864136455  BUTA      86              0.0000000000
      4832       221  BUTA      C4             -9.0514487736      -10.5024783752       19.5772034887  BUTA      86              0.0000000000
      4833       221  BUTA      DC4            -9.0721636551      -10.4995511913       19.5274556820  BUTA      86              0.0000000000
      4834       221  BUTA      O1             -9.3743229794       -9.8394137586       18.5298083858  BUTA      86              0.0000000000
      4835       221  BUTA      DO1            -9.3788651091       -9.8381200193       18.4840060979  BUTA      86              0.0000000000
      4836       221  BUTA      O2             -8.2453331376      -10.1815424643       20.5086787556  BUTA      86              0.0000000000
      4837       221  BUTA      DO2            -8.2552329565      -10.2119115236       20.4746296361  BUTA      86              0.0000000000
      4838       221  BUTA      H1            -11.0678238162      -12.2787866778       21.5921219080  BUTA      86              0.0000000000
      4839       221  BUTA      H2            -11.5065806813      -10.7526799462       20.7913796882  BUTA      86              0.0000000000
      4840       221  BUTA      H3            -12.6385365398      -12.1470800123       20.7049868622  BUTA      86              0.0000000000
      4841       221  BUTA      H4            -11.3413498389      -11.8414463748       18.5577349797  BUTA      86              0.0000000000
      4842       221  BUTA      H5            -10.9797494484      -13.4340525360       19.3298777523  BUTA      86              0.0000000000
      4843       221  BUTA      H6             -8.8909758432      -12.4283978885       18.6031585973  BUTA      86              0.0000000000
      4844       221  BUTA      H7             -8.9645614306      -12.5398312144       20.3566299243  BUTA      86              0.0000000000
      4845       221  BUTA      H8             -8.0644059642      -10.8909395654       21.1434874765  BUTA      86              0.0000000000
      4846       221  BUTA      H9             -9.1803949311       -8.8917766509       18.5875736367  BUTA      86              0.0000000000
      4847       221  BUTA      LPO11          -9.5180885978      -10.0528639375       18.2925944146  BUTA      86              0.0000000000
      4848       221  BUTA      LPO12          -9.2909017460       -9.5020384543       18.5712668207  BUTA      86              0.0000000000
      4849       221  BUTA      LPO21          -8.1500963822      -10.4665874537       20.6880646927  BUTA      86              0.0000000000
      4850       221  BUTA      LPO22          -8.1889602659       -9.8361376808       20.5044793695  BUTA      86              0.0000000000
      4851       222  BUTA      C1             18.0576849329      -25.8698349559      -20.0009568813  BUTA      87              0.0000000000
      4852       222  BUTA      DC1            18.0593233959      -25.8553750949      -20.0008846213  BUTA      87              0.0000000000
      4853       222  BUTA      C2             18.8567445088      -24.9356455633      -20.9055261710  BUTA      87              0.0000000000
      4854       222  BUTA      DC2            18.8944015710      -24.9998853621      -20.9490893511  BUTA      87              0.0000000000
      4855       222  BUTA      C3             19.0838220042      -23.5531361213      -20.2752268836  BUTA      87              0.0000000000
      4856       222  BUTA      DC3            19.0538787143      -23.5777824587      -20.2656627935  BUTA      87              0.0000000000
      4857       222  BUTA      C4             17.8703456666      -22.8277453026      -19.8367719599  BUTA      87              0.0000000000
      4858       222  BUTA      DC4            17.8634357461      -22.8311226304      -19.8446916154  BUTA      87              0.0000000000
      4859       222  BUTA      O1             17.1751595345      -22.2890932425      -20.7592612205  BUTA      87              0.0000000000
      4860       222  BUTA      DO1            17.1732289761      -22.2915702219      -20.7555844544  BUTA      87              0.0000000000
      4861       222  BUTA      O2             17.6842949926      -22.7811709716      -18.5781763071  BUTA      87              0.0000000000
      4862       222  BUTA      DO2            17.6931774535      -22.7717697731      -18.5863365692  BUTA      87              0.0000000000
      4863       222  BUTA      H1             18.6023650783      -26.0921704948      -19.0585071759  BUTA      87              0.0000000000
      4864       222  BUTA      H2             17.0984930733      -25.3904435643      -19.7103439560  BUTA      87              0.0000000000
      4865       222  BUTA      H3             17.8073941647      -26.8303950372      -20.4999557414  BUTA      87              0.0000000000
      4866       222  BUTA      H4             18.3010858244      -24.7827373716      -21.8553595842  BUTA      87              0.0000000000
      4867       222  BUTA      H5             19.8418056443      -25.3906484843      -21.1441637646  BUTA      87              0.0000000000
      4868       222  BUTA      H6             19.6986073172      -22.9577024307      -20.9836185402  BUTA      87              0.0000000000
      4869       222  BUTA      H7             19.7495827452      -23.7417834149      -19.4060342496  BUTA      87              0.0000000000
      4870       222  BUTA      H8             18.3704385428      -23.2174095587      -18.0510483115  BUTA      87              0.0000000000
      4871       222  BUTA      H9             16.3786735874      -21.8317637224      -20.4503585723  BUTA      87              0.0000000000
      4872       222  BUTA      LPO11          17.3222333497      -22.3498929236      -21.0709865671  BUTA      87              0.0000000000
      4873       222  BUTA      LPO12          16.8974980521      -22.1271101334      -20.6208214374  BUTA      87              0.0000000000
      4874       222  BUTA      LPO21          17.9426121972      -22.9496322666      -18.4126679572  BUTA      87              0.0000000000
      4875       222  BUTA      LPO22          17.3909905261      -22.6039512653      -18.5070028175  BUTA      87              0.0000000000
      4876       223  BUTA      C1             -4.3537075520      -26.2981677991      -26.0697725345  BUTA      88              0.0000000000
      4877       223  BUTA      DC1            -4.3415063624      -26.2905047990      -26.0628211970  BUTA      88              0.0000000000
      4878       223  BUTA      C2             -4.4014765215      -25.5417672021      -27.3937853634  BUTA      88              0.0000000000
      4879       223  BUTA      DC2            -4.4031277824      -25.6214260326      -27.4337357066  BUTA      88              0.0000000000
      4880       223  BUTA      C3             -3.6022112806      -24.2212117340      -27.3472456316  BUTA      88              0.0000000000
      4881       223  BUTA      DC3            -3.6379330748      -24.2334307404      -27.3085921082  BUTA      88              0.0000000000
      4882       223  BUTA      C4             -3.9987607004      -23.2191905384      -26.2879730230  BUTA      88              0.0000000000
      4883       223  BUTA      DC4            -4.0122148438      -23.2074009385      -26.2836488633  BUTA      88              0.0000000000
      4884       223  BUTA      O1             -5.1261768147      -22.6426854950      -26.4577536863  BUTA      88              0.0000000000
      4885       223  BUTA      DO1            -5.1330855515      -22.6319453052      -26.4562580935  BUTA      88              0.0000000000
      4886       223  BUTA      O2             -3.1358315763      -22.9583716821      -25.3823038652  BUTA      88              0.0000000000
      4887       223  BUTA      DO2            -3.1397592643      -22.9487490460      -25.3820191598  BUTA      88              0.0000000000
      4888       223  BUTA      H1             -3.3071677644      -26.5633631232      -25.8075762078  BUTA      88              0.0000000000
      4889       223  BUTA      H2             -4.7528366606      -25.6596966641      -25.2528444073  BUTA      88              0.0000000000
      4890       223  BUTA      H3             -4.9583688515      -27.2293436782      -26.1099868997  BUTA      88              0.0000000000
      4891       223  BUTA      H4             -5.4581716480      -25.3006833260      -27.6379061835  BUTA      88              0.0000000000
      4892       223  BUTA      H5             -4.0052217087      -26.1843267251      -28.2089052213  BUTA      88              0.0000000000
      4893       223  BUTA      H6             -3.6922948930      -23.7873927930      -28.3660719522  BUTA      88              0.0000000000
      4894       223  BUTA      H7             -2.5323963526      -24.5105501467      -27.2691411974  BUTA      88              0.0000000000
      4895       223  BUTA      H8             -2.2989137374      -23.4362684835      -25.4830221757  BUTA      88              0.0000000000
      4896       223  BUTA      H9             -5.3527126544      -21.9889377763      -25.7793316689  BUTA      88              0.0000000000
      4897       223  BUTA      LPO11          -5.2770877069      -22.7589886262      -26.7513511732  BUTA      88              0.0000000000
      4898       223  BUTA      LPO12          -5.1865372396      -22.4183486234      -26.1959721225  BUTA      88              0.0000000000
      4899       223  BUTA      LPO21          -2.8446006046      -23.1445512777      -25.4372736685  BUTA      88              0.0000000000
      4900       223  BUTA      LPO22          -3.2653872175      -22.7233259934      -25.1576511108  BUTA      88              0.0000000000
      4901       224  BUTA      C1              3.0676979297        3.4435809346       11.2040197022  BUTA      89              0.0000000000
      4902       224  BUTA      DC1             3.1043625068        3.4421667149       11.2162344220  BUTA      89              0.0000000000
      4903       224  BUTA      C2              3.4260322545        2.3303300191       12.1864628919  BUTA      89              0.0000000000
      4904       224  BUTA      DC2             3.3628602564        2.3346523519       12.2142409503  BUTA      89              0.0000000000
      4905       224  BUTA      C3              4.9345979367        2.2520279113       12.5179418383  BUTA      89              0.0000000000
      4906       224  BUTA      DC3             4.9413331809        2.2621930575       12.4491208163  BUTA      89              0.0000000000
      4907       224  BUTA      C4              5.9179878440        2.0317314487       11.3942082161  BUTA      89              0.0000000000
      4908       224  BUTA      DC4             5.9309246456        1.9876896336       11.3605686379  BUTA      89              0.0000000000
      4909       224  BUTA      O1              5.9480167143        0.8715836064       10.8418102298  BUTA      89              0.0000000000
      4910       224  BUTA      DO1             5.9643746909        0.8261825134       10.8187129196  BUTA      89              0.0000000000
      4911       224  BUTA      O2              6.7233824772        3.0006939199       11.1776899118  BUTA      89              0.0000000000
      4912       224  BUTA      DO2             6.7133532799        2.9992925294       11.1805594577  BUTA      89              0.0000000000
      4913       224  BUTA      H1              3.2171988977        4.4431768981       11.6652987612  BUTA      89              0.0000000000
      4914       224  BUTA      H2              3.6924025686        3.3869113045       10.2870389670  BUTA      89              0.0000000000
      4915       224  BUTA      H3              2.0033790225        3.3863849936       10.8905314433  BUTA      89              0.0000000000
      4916       224  BUTA      H4              3.1262005579        1.3465978598       11.7661142351  BUTA      89              0.0000000000
      4917       224  BUTA      H5              2.8518705143        2.4736396856       13.1267403167  BUTA      89              0.0000000000
      4918       224  BUTA      H6              5.0277730838        1.4592275482       13.2906688133  BUTA      89              0.0000000000
      4919       224  BUTA      H7              5.1426741906        3.1901438348       13.0755831089  BUTA      89              0.0000000000
      4920       224  BUTA      H8              6.5831915879        3.7718490938       11.7474505751  BUTA      89              0.0000000000
      4921       224  BUTA      H9              6.5871477529        0.7903158383       10.1180229231  BUTA      89              0.0000000000
      4922       224  BUTA      LPO11           5.7125620497        0.6610635455       10.9926160813  BUTA      89              0.0000000000
      4923       224  BUTA      LPO12           6.1890648995        0.8660012724       10.5881084167  BUTA      89              0.0000000000
      4924       224  BUTA      LPO21           6.6595014047        3.2618156315       11.4018208118  BUTA      89              0.0000000000
      4925       224  BUTA      LPO22           6.9380892781        2.9210291792       10.9130117701  BUTA      89              0.0000000000
      4926       225  BUTA      C1            -19.1125104948       14.6204112616      -14.1867899270  BUTA      90              0.0000000000
      4927       225  BUTA      DC1           -19.0691682862       14.6564831634      -14.1779721305  BUTA      90              0.0000000000
      4928       225  BUTA      C2            -17.7530546470       14.9272474210      -13.5674063988  BUTA      90              0.0000000000
      4929       225  BUTA      DC2           -17.7306328335       14.8633759427      -13.5128051265  BUTA      90              0.0000000000
      4930       225  BUTA      C3            -17.4521997797       16.4406694331      -13.5036083808  BUTA      90              0.0000000000
      4931       225  BUTA      DC3           -17.4811380191       16.4337333063      -13.5399245495  BUTA      90              0.0000000000
      4932       225  BUTA      C4            -17.5847047560       17.1935324414      -14.8017944703  BUTA      90              0.0000000000
      4933       225  BUTA      DC4           -17.5838559911       17.2019644918      -14.8216724313  BUTA      90              0.0000000000
      4934       225  BUTA      O1            -16.5769962462       17.1362931075      -15.5894003240  BUTA      90              0.0000000000
      4935       225  BUTA      DO1           -16.5670680808       17.1401565484      -15.5973047392  BUTA      90              0.0000000000
      4936       225  BUTA      O2            -18.6262034632       17.9280169983      -14.9248618830  BUTA      90              0.0000000000
      4937       225  BUTA      DO2           -18.6352311753       17.9414758835      -14.9237124986  BUTA      90              0.0000000000
      4938       225  BUTA      H1            -19.9442114082       15.0004589920      -13.5557920560  BUTA      90              0.0000000000
      4939       225  BUTA      H2            -19.2231553101       15.0988934850      -15.1833507570  BUTA      90              0.0000000000
      4940       225  BUTA      H3            -19.2743087051       13.5286307401      -14.3139026029  BUTA      90              0.0000000000
      4941       225  BUTA      H4            -16.9646175740       14.4529175453      -14.1900613207  BUTA      90              0.0000000000
      4942       225  BUTA      H5            -17.6953899816       14.4809549719      -12.5516215611  BUTA      90              0.0000000000
      4943       225  BUTA      H6            -16.4321741131       16.5370299430      -13.0739768035  BUTA      90              0.0000000000
      4944       225  BUTA      H7            -18.1231642388       16.8504652044      -12.7186274125  BUTA      90              0.0000000000
      4945       225  BUTA      H8            -19.1902564927       17.9516430852      -14.1373042738  BUTA      90              0.0000000000
      4946       225  BUTA      H9            -16.6885035110       17.6162628935      -16.4237600392  BUTA      90              0.0000000000
      4947       225  BUTA      LPO11         -16.3242644947       16.9408841799      -15.4464247568  BUTA      90              0.0000000000
      4948       225  BUTA      LPO12         -16.6412827731       17.3209980675      -15.8796611036  BUTA      90              0.0000000000
      4949       225  BUTA      LPO21         -18.8228183121       17.9062722088      -14.6361236533  BUTA      90              0.0000000000
      4950       225  BUTA      LPO22         -18.6243374668       18.0871023565      -15.2366123712  BUTA      90              0.0000000000
      4951       226  BUTA      C1             21.3659344235       20.9984405706        5.5826363978  BUTA      91              0.0000000000
      4952       226  BUTA      DC1            21.4155390631       21.0283483744        5.6041404238  BUTA      91              0.0000000000
      4953       226  BUTA      C2             21.6801635187       19.5247358037        5.3740515297  BUTA      91              0.0000000000
      4954       226  BUTA      DC2            21.6172941652       19.5116796356        5.4070387211  BUTA      91              0.0000000000
      4955       226  BUTA      C3             23.1279639913       19.1470278667        5.7515757423  BUTA      91              0.0000000000
      4956       226  BUTA      DC3            23.1336487058       19.1900742034        5.7426380479  BUTA      91              0.0000000000
      4957       226  BUTA      C4             24.1851538606       19.9274774959        5.0413199515  BUTA      91              0.0000000000
      4958       226  BUTA      DC4            24.2094646500       19.9752858933        5.0858834920  BUTA      91              0.0000000000
      4959       226  BUTA      O1             24.3515660563       19.6400318070        3.8152844260  BUTA      91              0.0000000000
      4960       226  BUTA      DO1            24.3343678695       19.6407468280        3.8593914813  BUTA      91              0.0000000000
      4961       226  BUTA      O2             24.7916537002       20.7977877104        5.7576971338  BUTA      91              0.0000000000
      4962       226  BUTA      DO2            24.8063208283       20.8428754301        5.8034538055  BUTA      91              0.0000000000
      4963       226  BUTA      H1             21.4913644662       21.2855233148        6.6485499976  BUTA      91              0.0000000000
      4964       226  BUTA      H2             22.0374987609       21.6171902019        4.9498084309  BUTA      91              0.0000000000
      4965       226  BUTA      H3             20.3192334094       21.2140340184        5.2788972778  BUTA      91              0.0000000000
      4966       226  BUTA      H4             21.5178086517       19.2907569907        4.3001726659  BUTA      91              0.0000000000
      4967       226  BUTA      H5             20.9514942177       18.9078213360        5.9421875956  BUTA      91              0.0000000000
      4968       226  BUTA      H6             23.2332164590       18.0561914355        5.5690413621  BUTA      91              0.0000000000
      4969       226  BUTA      H7             23.1901463525       19.2541935390        6.8556454288  BUTA      91              0.0000000000
      4970       226  BUTA      H8             24.5612390477       20.7691156224        6.6984670309  BUTA      91              0.0000000000
      4971       226  BUTA      H9             25.0488993459       20.1374618171        3.3622384369  BUTA      91              0.0000000000
      4972       226  BUTA      LPO11          24.1296736733       19.3864621863        3.7205943113  BUTA      91              0.0000000000
      4973       226  BUTA      LPO12          24.6048239907       19.8394233520        3.6788900330  BUTA      91              0.0000000000
      4974       226  BUTA      LPO21          24.6643443624       20.7942244037        6.0837027094  BUTA      91              0.0000000000
      4975       226  BUTA      LPO22          25.0324014355       20.9641319273        5.5656811723  BUTA      91              0.0000000000
      4976       227  BUTA      C1             -3.5541369628      -27.5700820229       -1.9662030749  BUTA      92              0.0000000000
      4977       227  BUTA      DC1            -3.5452617635      -27.5174796906       -1.9518704194  BUTA      92              0.0000000000
      4978       227  BUTA      C2             -2.8014827464      -26.2466760386       -2.0597006162  BUTA      92              0.0000000000
      4979       227  BUTA      DC2            -2.7227859081      -26.2528822083       -2.0559866175  BUTA      92              0.0000000000
      4980       227  BUTA      C3             -3.5387522059      -25.1110346945       -1.3253809748  BUTA      92              0.0000000000
      4981       227  BUTA      DC3            -3.5663994649      -25.1188947170       -1.3296633060  BUTA      92              0.0000000000
      4982       227  BUTA      C4             -4.9397545687      -24.7803639873       -1.7874004029  BUTA      92              0.0000000000
      4983       227  BUTA      DC4            -4.9388774528      -24.7625489730       -1.8377016834  BUTA      92              0.0000000000
      4984       227  BUTA      O1             -5.0514939142      -24.3060540560       -2.9767225918  BUTA      92              0.0000000000
      4985       227  BUTA      DO1            -5.0504078579      -24.2708300154       -3.0223671591  BUTA      92              0.0000000000
      4986       227  BUTA      O2             -5.8154315165      -24.8017487164       -0.8577646257  BUTA      92              0.0000000000
      4987       227  BUTA      DO2            -5.7839475606      -24.7960267221       -0.8607893272  BUTA      92              0.0000000000
      4988       227  BUTA      H1             -3.6488424969      -27.9126300369       -0.9135812431  BUTA      92              0.0000000000
      4989       227  BUTA      H2             -4.5824344543      -27.4698888228       -2.3747206304  BUTA      92              0.0000000000
      4990       227  BUTA      H3             -3.0419387683      -28.3730489742       -2.5382328683  BUTA      92              0.0000000000
      4991       227  BUTA      H4             -2.6984339696      -25.9630313756       -3.1289282136  BUTA      92              0.0000000000
      4992       227  BUTA      H5             -1.7814244985      -26.3687284090       -1.6367285252  BUTA      92              0.0000000000
      4993       227  BUTA      H6             -2.8824502237      -24.2177003240       -1.3998283509  BUTA      92              0.0000000000
      4994       227  BUTA      H7             -3.5015557484      -25.3961286032       -0.2522272641  BUTA      92              0.0000000000
      4995       227  BUTA      H8             -5.4868587928      -25.1234630418       -0.0048280173  BUTA      92              0.0000000000
      4996       227  BUTA      H9             -5.9609580988      -24.0847366340       -3.2274305810  BUTA      92              0.0000000000
      4997       227  BUTA      LPO11          -4.7359093327      -24.2820110073       -3.1261491747  BUTA      92              0.0000000000
      4998       227  BUTA      LPO12          -5.3878926294      -24.2417455019       -3.0488357967  BUTA      92              0.0000000000
      4999       227  BUTA      LPO21          -5.6645930011      -24.8850627947       -0.5531230222  BUTA      92              0.0000000000
      5000       227  BUTA      LPO22          -6.1304051154      -24.7224429477       -0.9881572141  BUTA      92              0.0000000000
      5001       228  BUTA      C1             -0.0951651540       18.8945669851      -12.9281615495  BUTA      93              0.0000000000
      5002       228  BUTA      DC1            -0.0699984333       18.9246989758      -12.9304582735  BUTA      93              0.0000000000
      5003       228  BUTA      C2              1.3733285060       18.5159602208      -12.8777968537  BUTA      93              0.0000000000
      5004       228  BUTA      DC2             1.4125515072       18.6395716336      -12.8821044730  BUTA      93              0.0000000000
      5005       228  BUTA      C3              1.5742212674       17.1274599186      -13.5004401016  BUTA      93              0.0000000000
      5006       228  BUTA      DC3             1.5706495912       17.1881640690      -13.4873114235  BUTA      93              0.0000000000
      5007       228  BUTA      C4              0.9200042268       16.0124218532      -12.7604322498  BUTA      93              0.0000000000
      5008       228  BUTA      DC4             0.9485654825       16.0559621013      -12.7671431198  BUTA      93              0.0000000000
      5009       228  BUTA      O1              1.4688571559       15.7925486069      -11.6326042078  BUTA      93              0.0000000000
      5010       228  BUTA      DO1             1.4870423682       15.8018245160      -11.6576627127  BUTA      93              0.0000000000
      5011       228  BUTA      O2              0.1205548451       15.2918984520      -13.4339819552  BUTA      93              0.0000000000
      5012       228  BUTA      DO2             0.1574923953       15.3148479902      -13.4215090870  BUTA      93              0.0000000000
      5013       228  BUTA      H1             -0.4348385878       18.8661866093      -13.9855817652  BUTA      93              0.0000000000
      5014       228  BUTA      H2             -0.6955027736       18.1367244171      -12.3808130437  BUTA      93              0.0000000000
      5015       228  BUTA      H3             -0.3160015467       19.8936716128      -12.4953310618  BUTA      93              0.0000000000
      5016       228  BUTA      H4              1.7056023436       18.4779379620      -11.8183302876  BUTA      93              0.0000000000
      5017       228  BUTA      H5              1.9792470822       19.2648119778      -13.4313352223  BUTA      93              0.0000000000
      5018       228  BUTA      H6              2.6701732771       16.9499981706      -13.5418830803  BUTA      93              0.0000000000
      5019       228  BUTA      H7              1.2388550857       17.1814398922      -14.5582381385  BUTA      93              0.0000000000
      5020       228  BUTA      H8             -0.0295105111       15.5916454184      -14.3431536359  BUTA      93              0.0000000000
      5021       228  BUTA      H9              1.0433488100       15.0891030361      -11.1197026807  BUTA      93              0.0000000000
      5022       228  BUTA      LPO11           1.7348324312       16.0147037069      -11.5835709078  BUTA      93              0.0000000000
      5023       228  BUTA      LPO12           1.3060716254       15.5290551757      -11.4695947517  BUTA      93              0.0000000000
      5024       228  BUTA      LPO21           0.1049939938       15.4069026923      -13.7641817199  BUTA      93              0.0000000000
      5025       228  BUTA      LPO22          -0.0146372899       15.0410243782      -13.2307941462  BUTA      93              0.0000000000
      5026       229  BUTA      C1             20.6553000965      -12.6196135460        0.8485515166  BUTA      94              0.0000000000
      5027       229  BUTA      DC1            20.6496012606      -12.5906905048        0.8383077281  BUTA      94              0.0000000000
      5028       229  BUTA      C2             20.7366112207      -12.3156691394        2.3340664451  BUTA      94              0.0000000000
      5029       229  BUTA      DC2            20.7067796421      -12.3784638138        2.3439752275  BUTA      94              0.0000000000
      5030       229  BUTA      C3             20.1461702189      -10.9215706627        2.5875613873  BUTA      94              0.0000000000
      5031       229  BUTA      DC3            20.1344005827      -10.9133962757        2.5670226684  BUTA      94              0.0000000000
      5032       229  BUTA      C4             20.7671282478       -9.7652924037        1.8478037795  BUTA      94              0.0000000000
      5033       229  BUTA      DC4            20.7129360061       -9.7551992913        1.8179027293  BUTA      94              0.0000000000
      5034       229  BUTA      O1             21.9054123199       -9.4168448976        2.2753327417  BUTA      94              0.0000000000
      5035       229  BUTA      DO1            21.8517979342       -9.4392818872        2.2598349166  BUTA      94              0.0000000000
      5036       229  BUTA      O2             19.9755166395       -9.1218617193        1.0739111208  BUTA      94              0.0000000000
      5037       229  BUTA      DO2            19.9325039812       -9.0943524249        1.0702913896  BUTA      94              0.0000000000
      5038       229  BUTA      H1             19.6120127241      -12.5301412204        0.4772468408  BUTA      94              0.0000000000
      5039       229  BUTA      H2             21.2724701352      -11.8695285442        0.3092977419  BUTA      94              0.0000000000
      5040       229  BUTA      H3             21.0136144683      -13.6405283598        0.5962327627  BUTA      94              0.0000000000
      5041       229  BUTA      H4             21.7942899569      -12.3309748720        2.6737757720  BUTA      94              0.0000000000
      5042       229  BUTA      H5             20.1825327285      -13.0818457133        2.9174115248  BUTA      94              0.0000000000
      5043       229  BUTA      H6             20.1777872081      -10.7651029460        3.6870336332  BUTA      94              0.0000000000
      5044       229  BUTA      H7             19.0805447485      -11.0624873150        2.3066595279  BUTA      94              0.0000000000
      5045       229  BUTA      H8             19.0976676899       -9.5198871715        0.9743221604  BUTA      94              0.0000000000
      5046       229  BUTA      H9             22.3067588102       -8.6641167995        1.8156780833  BUTA      94              0.0000000000
      5047       229  BUTA      LPO11          21.9995908422       -9.6200041951        2.5443247597  BUTA      94              0.0000000000
      5048       229  BUTA      LPO12          22.0266883560       -9.1477314104        2.0872634618  BUTA      94              0.0000000000
      5049       229  BUTA      LPO21          19.6553670228       -9.2627650378        1.0861780570  BUTA      94              0.0000000000
      5050       229  BUTA      LPO22          20.1476538978       -8.8606523162        0.9169448440  BUTA      94              0.0000000000
      5051       230  BUTA      C1             14.2695760371       -0.0714623986      -20.8693382054  BUTA      95              0.0000000000
      5052       230  BUTA      DC1            14.2733804496       -0.0844913797      -20.8825392308  BUTA      95              0.0000000000
      5053       230  BUTA      C2             12.7766288748       -0.2324357492      -21.0826737709  BUTA      95              0.0000000000
      5054       230  BUTA      DC2            12.7654946358       -0.1922188715      -21.0163962658  BUTA      95              0.0000000000
      5055       230  BUTA      C3             12.4637741221       -1.5230611962      -21.8592367108  BUTA      95              0.0000000000
      5056       230  BUTA      DC3            12.4916733910       -1.5036850210      -21.8548401114  BUTA      95              0.0000000000
      5057       230  BUTA      C4             12.9657282134       -1.6063528539      -23.2601908308  BUTA      95              0.0000000000
      5058       230  BUTA      DC4            12.9505348671       -1.5808304015      -23.2585115147  BUTA      95              0.0000000000
      5059       230  BUTA      O1             12.5017132312       -0.7333251100      -24.0654886490  BUTA      95              0.0000000000
      5060       230  BUTA      DO1            12.5133589783       -0.7141013269      -24.0679779777  BUTA      95              0.0000000000
      5061       230  BUTA      O2             13.8246304548       -2.5184769001      -23.4780524430  BUTA      95              0.0000000000
      5062       230  BUTA      DO2            13.8024298169       -2.5044328566      -23.4594376316  BUTA      95              0.0000000000
      5063       230  BUTA      H1             14.6746529531       -0.9442470097      -20.3139278015  BUTA      95              0.0000000000
      5064       230  BUTA      H2             14.8071014607       -0.0628681010      -21.8416105734  BUTA      95              0.0000000000
      5065       230  BUTA      H3             14.5117715127        0.8501641952      -20.2981405398  BUTA      95              0.0000000000
      5066       230  BUTA      H4             12.3810461686        0.6426001480      -21.6413753924  BUTA      95              0.0000000000
      5067       230  BUTA      H5             12.2608647154       -0.2559005913      -20.0989269879  BUTA      95              0.0000000000
      5068       230  BUTA      H6             11.3589711669       -1.6402423120      -21.8591027288  BUTA      95              0.0000000000
      5069       230  BUTA      H7             12.8407106873       -2.3510314212      -21.2215023364  BUTA      95              0.0000000000
      5070       230  BUTA      H8             14.0368345160       -3.0628905143      -22.7050425769  BUTA      95              0.0000000000
      5071       230  BUTA      H9             12.8402138123       -0.7939414917      -24.9714158043  BUTA      95              0.0000000000
      5072       230  BUTA      LPO11          12.2778322721       -0.5228778359      -23.8978901377  BUTA      95              0.0000000000
      5073       230  BUTA      LPO12          12.6384732535       -0.7798574293      -24.3842855115  BUTA      95              0.0000000000
      5074       230  BUTA      LPO21          13.8882604231       -2.6958941359      -23.1831383003  BUTA      95              0.0000000000
      5075       230  BUTA      LPO22          13.9227037216       -2.5127828266      -23.8139828106  BUTA      95              0.0000000000
      5076       231  BUTA      C1              5.4631107776        1.4390494540      -15.6743599974  BUTA      96              0.0000000000
      5077       231  BUTA      DC1             5.4780121201        1.4303060624      -15.6805328254  BUTA      96              0.0000000000
      5078       231  BUTA      C2              6.3839049028        0.2499288949      -15.4576381729  BUTA      96              0.0000000000
      5079       231  BUTA      DC2             6.4816452835        0.3149056811      -15.4737718017  BUTA      96              0.0000000000
      5080       231  BUTA      C3              5.8406738617       -1.1234641050      -15.8237540341  BUTA      96              0.0000000000
      5081       231  BUTA      DC3             5.8475252726       -1.0709111772      -15.8073439157  BUTA      96              0.0000000000
      5082       231  BUTA      C4              4.6431842285       -1.4626519049      -15.0814805039  BUTA      96              0.0000000000
      5083       231  BUTA      DC4             4.6618169746       -1.4507154529      -15.0961051806  BUTA      96              0.0000000000
      5084       231  BUTA      O1              4.8318677415       -1.6842084988      -13.8444223318  BUTA      96              0.0000000000
      5085       231  BUTA      DO1             4.8466196438       -1.6785886211      -13.8704462018  BUTA      96              0.0000000000
      5086       231  BUTA      O2              3.5702669668       -1.3803144382      -15.7531174665  BUTA      96              0.0000000000
      5087       231  BUTA      DO2             3.5841968911       -1.3742865222      -15.7537691271  BUTA      96              0.0000000000
      5088       231  BUTA      H1              5.2517651665        1.5916764697      -16.7543410283  BUTA      96              0.0000000000
      5089       231  BUTA      H2              4.4920444231        1.2799024622      -15.1585854633  BUTA      96              0.0000000000
      5090       231  BUTA      H3              5.9266352614        2.3704520289      -15.2845455573  BUTA      96              0.0000000000
      5091       231  BUTA      H4              6.6574359052        0.2138301837      -14.3814417810  BUTA      96              0.0000000000
      5092       231  BUTA      H5              7.2651874922        0.3994344043      -16.1174185157  BUTA      96              0.0000000000
      5093       231  BUTA      H6              6.6436471760       -1.8790600114      -15.6872634385  BUTA      96              0.0000000000
      5094       231  BUTA      H7              5.6557756681       -1.0804341681      -16.9184147501  BUTA      96              0.0000000000
      5095       231  BUTA      H8              3.7026930983       -1.1528519230      -16.6856865653  BUTA      96              0.0000000000
      5096       231  BUTA      H9              4.0225450579       -1.8777793466      -13.3479466318  BUTA      96              0.0000000000
      5097       231  BUTA      LPO11           5.1710024301       -1.6466793575      -13.7664529371  BUTA      96              0.0000000000
      5098       231  BUTA      LPO12           4.5282795806       -1.7634772042      -13.6893394478  BUTA      96              0.0000000000
      5099       231  BUTA      LPO21           3.6413797275       -1.2783680460      -16.0803022895  BUTA      96              0.0000000000
      5100       231  BUTA      LPO22           3.2966498941       -1.4667203104      -15.5526985983  BUTA      96              0.0000000000
      5101       232  BUTA      C1             -8.1472440675       -4.3600523722      -20.9777847537  BUTA      97              0.0000000000
      5102       232  BUTA      DC1            -8.1592327481       -4.3704170115      -20.9678414716  BUTA      97              0.0000000000
      5103       232  BUTA      C2             -9.2184260192       -5.3463093648      -20.5184806300  BUTA      97              0.0000000000
      5104       232  BUTA      DC2            -9.1745849573       -5.3604910063      -20.4332710596  BUTA      97              0.0000000000
      5105       232  BUTA      C3             -9.7391049815       -6.2262589594      -21.6734040183  BUTA      97              0.0000000000
      5106       232  BUTA      DC3            -9.7245053335       -6.1871594502      -21.6749206651  BUTA      97              0.0000000000
      5107       232  BUTA      C4            -10.3735806506       -5.5268490670      -22.8368858234  BUTA      97              0.0000000000
      5108       232  BUTA      DC4           -10.3696705398       -5.5184090166      -22.8372444983  BUTA      97              0.0000000000
      5109       232  BUTA      O1            -11.2956232009       -4.6992153181      -22.5411608282  BUTA      97              0.0000000000
      5110       232  BUTA      DO1           -11.2731137042       -4.6780956771      -22.5431797796  BUTA      97              0.0000000000
      5111       232  BUTA      O2             -9.8587319660       -5.7512990059      -23.9813592779  BUTA      97              0.0000000000
      5112       232  BUTA      DO2            -9.8717477596       -5.7692090544      -23.9944461279  BUTA      97              0.0000000000
      5113       232  BUTA      H1             -7.2700744828       -4.8925600778      -21.4036134314  BUTA      97              0.0000000000
      5114       232  BUTA      H2             -8.5421107836       -3.7039882400      -21.7827575055  BUTA      97              0.0000000000
      5115       232  BUTA      H3             -7.7997864378       -3.7119808653      -20.1449597318  BUTA      97              0.0000000000
      5116       232  BUTA      H4            -10.0806480742       -4.7858251374      -20.0980623145  BUTA      97              0.0000000000
      5117       232  BUTA      H5             -8.8129755352       -5.9996947146      -19.7165962932  BUTA      97              0.0000000000
      5118       232  BUTA      H6            -10.4584491654       -6.9375475150      -21.2141290068  BUTA      97              0.0000000000
      5119       232  BUTA      H7             -8.8730986278       -6.8476921500      -21.9867325758  BUTA      97              0.0000000000
      5120       232  BUTA      H8             -9.0762847990       -6.3226751704      -23.9650280359  BUTA      97              0.0000000000
      5121       232  BUTA      H9            -11.7152149528       -4.2728864799      -23.3034911263  BUTA      97              0.0000000000
      5122       232  BUTA      LPO11         -11.3412899735       -4.6897953551      -22.1942807190  BUTA      97              0.0000000000
      5123       232  BUTA      LPO12         -11.4232553421       -4.5530806055      -22.8324590986  BUTA      97              0.0000000000
      5124       232  BUTA      LPO21          -9.5891920574       -5.9723663730      -23.9500949713  BUTA      97              0.0000000000
      5125       232  BUTA      LPO22         -10.0315851052       -5.5723825467      -24.2275516679  BUTA      97              0.0000000000
      5126       233  BUTA      C1            -13.1403105537       25.7906957759       -5.1920385354  BUTA      98              0.0000000000
      5127       233  BUTA      DC1           -13.1886975394       25.8017765245       -5.2153848174  BUTA      98              0.0000000000
      5128       233  BUTA      C2            -14.6232095226       26.0940047990       -5.0096022560  BUTA      98              0.0000000000
      5129       233  BUTA      DC2           -14.6392173948       26.1896366067       -5.0212273443  BUTA      98              0.0000000000
      5130       233  BUTA      C3            -15.3633161973       24.9317594876       -4.3182397185  BUTA      98              0.0000000000
      5131       233  BUTA      DC3           -15.3476394518       24.9044486619       -4.3666946716  BUTA      98              0.0000000000
      5132       233  BUTA      C4            -15.3203764133       23.6029287963       -5.0189463512  BUTA      98              0.0000000000
      5133       233  BUTA      DC4           -15.4265351855       23.6321148801       -5.2241389433  BUTA      98              0.0000000000
      5134       233  BUTA      O1            -15.8541769205       23.6083223264       -6.1555913024  BUTA      98              0.0000000000
      5135       233  BUTA      DO1           -15.9372971892       23.6550615463       -6.3666681627  BUTA      98              0.0000000000
      5136       233  BUTA      O2            -14.7787114650       22.6724786880       -4.3850828498  BUTA      98              0.0000000000
      5137       233  BUTA      DO2           -14.8410940186       22.8055099062       -4.4361548519  BUTA      98              0.0000000000
      5138       233  BUTA      H1            -12.6578177769       25.5908896792       -4.2114268669  BUTA      98              0.0000000000
      5139       233  BUTA      H2            -13.0028757170       24.8771119358       -5.8091262380  BUTA      98              0.0000000000
      5140       233  BUTA      H3            -12.5869893625       26.6257386842       -5.6725174650  BUTA      98              0.0000000000
      5141       233  BUTA      H4            -15.0998739952       26.2641838683       -5.9986174567  BUTA      98              0.0000000000
      5142       233  BUTA      H5            -14.7343801031       27.0080774243       -4.3879646303  BUTA      98              0.0000000000
      5143       233  BUTA      H6            -16.4116372944       25.2587327395       -4.1496207070  BUTA      98              0.0000000000
      5144       233  BUTA      H7            -14.9222462273       24.8728640191       -3.3002467886  BUTA      98              0.0000000000
      5145       233  BUTA      H8            -14.4345472987       22.9260434575       -3.5154755049  BUTA      98              0.0000000000
      5146       233  BUTA      H9            -15.8476370707       22.7472342735       -6.5999398093  BUTA      98              0.0000000000
      5147       233  BUTA      LPO11         -15.9774698790       23.9276872850       -6.2284258383  BUTA      98              0.0000000000
      5148       233  BUTA      LPO12         -15.8326544774       23.2899856589       -6.2994612110  BUTA      98              0.0000000000
      5149       233  BUTA      LPO21         -14.6684890692       22.7880688128       -4.0736507601  BUTA      98              0.0000000000
      5150       233  BUTA      LPO22         -14.7851356279       22.3785881631       -4.5750488717  BUTA      98              0.0000000000
      5151       234  BUTA      C1              0.8796639466      -28.3906272907       20.0644311153  BUTA      99              0.0000000000
      5152       234  BUTA      DC1             0.8701944801      -28.3771263369       20.0663984156  BUTA      99              0.0000000000
      5153       234  BUTA      C2             -0.1602487484      -29.4181252981       20.4869133412  BUTA      99              0.0000000000
      5154       234  BUTA      DC2            -0.1169569293      -29.4732662090       20.4185443946  BUTA      99              0.0000000000
      5155       234  BUTA      C3             -1.4462397981      -28.7584335286       21.0175408807  BUTA      99              0.0000000000
      5156       234  BUTA      DC3            -1.3951425752      -28.7435781015       21.0207416498  BUTA      99              0.0000000000
      5157       234  BUTA      C4             -1.3232747067      -27.8616400227       22.2206486554  BUTA      99              0.0000000000
      5158       234  BUTA      DC4            -1.3303568068      -27.8596057453       22.2211039657  BUTA      99              0.0000000000
      5159       234  BUTA      O1             -0.9051733408      -28.4125689519       23.2937614897  BUTA      99              0.0000000000
      5160       234  BUTA      DO1            -0.9107184670      -28.4104664302       23.2921655895  BUTA      99              0.0000000000
      5161       234  BUTA      O2             -1.8522193465      -26.7071656189       22.0883535623  BUTA      99              0.0000000000
      5162       234  BUTA      DO2            -1.8804159650      -26.7278472538       22.0894629370  BUTA      99              0.0000000000
      5163       234  BUTA      H1              0.4907196410      -27.7728773811       19.2269179043  BUTA      99              0.0000000000
      5164       234  BUTA      H2              1.1080979910      -27.7188800537       20.9193548183  BUTA      99              0.0000000000
      5165       234  BUTA      H3              1.8283802039      -28.8640574343       19.7325842196  BUTA      99              0.0000000000
      5166       234  BUTA      H4              0.2548348619      -30.0563956437       21.2960100982  BUTA      99              0.0000000000
      5167       234  BUTA      H5             -0.4160698284      -30.0716540178       19.6256486955  BUTA      99              0.0000000000
      5168       234  BUTA      H6             -2.1432032350      -29.5938770952       21.2424786860  BUTA      99              0.0000000000
      5169       234  BUTA      H7             -1.9085047663      -28.2403114138       20.1502568591  BUTA      99              0.0000000000
      5170       234  BUTA      H8             -2.1474661821      -26.5025542344       21.1883955148  BUTA      99              0.0000000000
      5171       234  BUTA      H9             -0.8885307858      -27.8252663185       24.0643194967  BUTA      99              0.0000000000
      5172       234  BUTA      LPO11          -0.8429236517      -28.7523586580       23.2374771057  BUTA      99              0.0000000000
      5173       234  BUTA      LPO12          -0.8890168154      -28.1760945069       23.5512858643  BUTA      99              0.0000000000
      5174       234  BUTA      LPO21          -1.9948573094      -26.6765898713       21.7702033852  BUTA      99              0.0000000000
      5175       234  BUTA      LPO22          -1.8087680768      -26.5212565214       22.3816960151  BUTA      99              0.0000000000
      5176       235  BUTA      C1            -10.2919072769      -21.3104368468      -23.7671822835  BUTA      100             0.0000000000
      5177       235  BUTA      DC1           -10.2907212564      -21.3064652760      -23.7378925652  BUTA      100             0.0000000000
      5178       235  BUTA      C2             -9.2582110337      -20.6854982472      -22.8332357803  BUTA      100             0.0000000000
      5179       235  BUTA      DC2            -9.2769149428      -20.5887350310      -22.8585155454  BUTA      100             0.0000000000
      5180       235  BUTA      C3             -8.2427911367      -21.7236490913      -22.3142117915  BUTA      100             0.0000000000
      5181       235  BUTA      DC3            -8.2894333529      -21.7156676575      -22.3119819364  BUTA      100             0.0000000000
      5182       235  BUTA      C4             -8.8212569008      -22.8243485761      -21.4758058292  BUTA      100             0.0000000000
      5183       235  BUTA      DC4            -8.8344056258      -22.7922617603      -21.4443926840  BUTA      100             0.0000000000
      5184       235  BUTA      O1             -9.2916721522      -22.4468724339      -20.3466228351  BUTA      100             0.0000000000
      5185       235  BUTA      DO1            -9.2966954700      -22.4361436656      -20.3169697367  BUTA      100             0.0000000000
      5186       235  BUTA      O2             -8.7103988062      -24.0091708011      -21.9259846812  BUTA      100             0.0000000000
      5187       235  BUTA      DO2            -8.7085191270      -23.9732292381      -21.9129555919  BUTA      100             0.0000000000
      5188       235  BUTA      H1             -9.7958431117      -21.7442770648      -24.6616228968  BUTA      100             0.0000000000
      5189       235  BUTA      H2            -10.8292242435      -22.1394572503      -23.2589139998  BUTA      100             0.0000000000
      5190       235  BUTA      H3            -11.0366521981      -20.5671771818      -24.1238909502  BUTA      100             0.0000000000
      5191       235  BUTA      H4             -9.7653232235      -20.2333436791      -21.9541939876  BUTA      100             0.0000000000
      5192       235  BUTA      H5             -8.7115466183      -19.8870291376      -23.3790618505  BUTA      100             0.0000000000
      5193       235  BUTA      H6             -7.4747910491      -21.1581280505      -21.7444023327  BUTA      100             0.0000000000
      5194       235  BUTA      H7             -7.7030461663      -22.1028403577      -23.2081974461  BUTA      100             0.0000000000
      5195       235  BUTA      H8             -8.2591760009      -24.0714406226      -22.7812515690  BUTA      100             0.0000000000
      5196       235  BUTA      H9             -9.6624090006      -23.1689365640      -19.8173416421  BUTA      100             0.0000000000
      5197       235  BUTA      LPO11          -9.2516626116      -22.1011195392      -20.3098237522  BUTA      100             0.0000000000
      5198       235  BUTA      LPO12          -9.4196576034      -22.7220306630      -20.1722448743  BUTA      100             0.0000000000
      5199       235  BUTA      LPO21          -8.5432213902      -24.0052505604      -22.2334523109  BUTA      100             0.0000000000
      5200       235  BUTA      LPO22          -8.8567156279      -24.2360436000      -21.7032289388  BUTA      100             0.0000000000
      5201       236  BUTA      C1             27.6834084998        3.8126830285       13.1793117919  BUTA      101             0.0000000000
      5202       236  BUTA      DC1            27.6684688042        3.7970853483       13.1961852076  BUTA      101             0.0000000000
      5203       236  BUTA      C2             26.2345680860        3.6076062216       13.6048480587  BUTA      101             0.0000000000
      5204       236  BUTA      DC2            26.1969991190        3.6788050789       13.5754574244  BUTA      101             0.0000000000
      5205       236  BUTA      C3             26.1148028827        2.7762886318       14.8977204266  BUTA      101             0.0000000000
      5206       236  BUTA      DC3            26.1301775972        2.7788296498       14.8745623608  BUTA      101             0.0000000000
      5207       236  BUTA      C4             26.6198313090        1.3647086424       14.8722535874  BUTA      101             0.0000000000
      5208       236  BUTA      DC4            26.5876645925        1.3555191842       14.8450071454  BUTA      101             0.0000000000
      5209       236  BUTA      O1             25.8556915790        0.5364861199       14.2633122904  BUTA      101             0.0000000000
      5210       236  BUTA      DO1            25.8247024444        0.5121752645       14.2671010729  BUTA      101             0.0000000000
      5211       236  BUTA      O2             27.5617606619        1.1107897094       15.6934532393  BUTA      101             0.0000000000
      5212       236  BUTA      DO2            27.5308300987        1.1256825947       15.6843683728  BUTA      101             0.0000000000
      5213       236  BUTA      H1             28.2582970168        4.3529495458       13.9615753564  BUTA      101             0.0000000000
      5214       236  BUTA      H2             28.1836681092        2.8356401088       13.0077062715  BUTA      101             0.0000000000
      5215       236  BUTA      H3             27.7418590615        4.4043299356       12.2407711858  BUTA      101             0.0000000000
      5216       236  BUTA      H4             25.6910566510        3.0790778187       12.7927064163  BUTA      101             0.0000000000
      5217       236  BUTA      H5             25.7578998100        4.6017149010       13.7421662618  BUTA      101             0.0000000000
      5218       236  BUTA      H6             25.0379334299        2.7854806189       15.1708297274  BUTA      101             0.0000000000
      5219       236  BUTA      H7             26.6211053143        3.3731209336       15.6862443966  BUTA      101             0.0000000000
      5220       236  BUTA      H8             27.8839809615        1.8820739064       16.1836121585  BUTA      101             0.0000000000
      5221       236  BUTA      H9             26.2174430301       -0.3607884475       14.2085835209  BUTA      101             0.0000000000
      5222       236  BUTA      LPO11          25.5727478779        0.7022990671       14.1410464794  BUTA      101             0.0000000000
      5223       236  BUTA      LPO12          25.9958078316        0.2158678342       14.2717592168  BUTA      101             0.0000000000
      5224       236  BUTA      LPO21          27.6419534019        1.3982866322       15.8762499675  BUTA      101             0.0000000000
      5225       236  BUTA      LPO22          27.6584149731        0.7756195568       15.6648365847  BUTA      101             0.0000000000
      5226       237  BUTA      C1            -10.0735458105       11.4866329334       12.4429577553  BUTA      102             0.0000000000
      5227       237  BUTA      DC1           -10.0827008997       11.4728229639       12.4733631531  BUTA      102             0.0000000000
      5228       237  BUTA      C2            -11.5358151240       11.8639845777       12.2932820861  BUTA      102             0.0000000000
      5229       237  BUTA      DC2           -11.5203844701       11.9378075095       12.3210850838  BUTA      102             0.0000000000
      5230       237  BUTA      C3            -12.4987413814       10.7026082378       12.5447257516  BUTA      102             0.0000000000
      5231       237  BUTA      DC3           -12.4597305611       10.6864080683       12.5097558649  BUTA      102             0.0000000000
      5232       237  BUTA      C4            -12.3702757577        9.5134322215       11.6653795776  BUTA      102             0.0000000000
      5233       237  BUTA      DC4           -12.3722960287        9.4917611231       11.6587835351  BUTA      102             0.0000000000
      5234       237  BUTA      O1            -12.9286857941        9.6114205020       10.5165431399  BUTA      102             0.0000000000
      5235       237  BUTA      DO1           -12.9434709191        9.6149855776       10.5153399140  BUTA      102             0.0000000000
      5236       237  BUTA      O2            -11.9828865436        8.4506713785       12.2548598086  BUTA      102             0.0000000000
      5237       237  BUTA      DO2           -11.9883354596        8.4339824847       12.2731009680  BUTA      102             0.0000000000
      5238       237  BUTA      H1             -9.8321533464       11.2261229658       13.4956615290  BUTA      102             0.0000000000
      5239       237  BUTA      H2             -9.8703050466       10.5972441617       11.8089216320  BUTA      102             0.0000000000
      5240       237  BUTA      H3             -9.4034260353       12.3069161144       12.1077026430  BUTA      102             0.0000000000
      5241       237  BUTA      H4            -11.7492379089       12.1398936011       11.2384617566  BUTA      102             0.0000000000
      5242       237  BUTA      H5            -11.7610989276       12.7486055531       12.9265386990  BUTA      102             0.0000000000
      5243       237  BUTA      H6            -13.5008982547       11.1461645130       12.3623513189  BUTA      102             0.0000000000
      5244       237  BUTA      H7            -12.4519776502       10.4751189364       13.6311799711  BUTA      102             0.0000000000
      5245       237  BUTA      H8            -11.8335221369        8.5644742041       13.2054912781  BUTA      102             0.0000000000
      5246       237  BUTA      H9            -12.8650625151        8.8115230855        9.9733330499  BUTA      102             0.0000000000
      5247       237  BUTA      LPO11         -13.0811287691        9.9247799224       10.4838779747  BUTA      102             0.0000000000
      5248       237  BUTA      LPO12         -12.8805984172        9.3163731193       10.3345138947  BUTA      102             0.0000000000
      5249       237  BUTA      LPO21         -11.9316708699        8.5144258760       12.5951718989  BUTA      102             0.0000000000
      5250       237  BUTA      LPO22         -11.9613910568        8.1874415951       12.0251904263  BUTA      102             0.0000000000
      5251       238  BUTA      C1            -20.1230226004      -12.6892716776       15.0480702369  BUTA      103             0.0000000000
      5252       238  BUTA      DC1           -20.1626647694      -12.6730220460       15.0216636136  BUTA      103             0.0000000000
      5253       238  BUTA      C2            -21.4306357547      -12.8898499708       15.7952007417  BUTA      103             0.0000000000
      5254       238  BUTA      DC2           -21.4277184749      -12.9482370192       15.7939802524  BUTA      103             0.0000000000
      5255       238  BUTA      C3            -22.5833506664      -12.1114291853       15.1398542879  BUTA      103             0.0000000000
      5256       238  BUTA      DC3           -22.5962531104      -12.0670796719       15.1277587213  BUTA      103             0.0000000000
      5257       238  BUTA      C4            -22.4574355059      -10.5958451581       15.0097287340  BUTA      103             0.0000000000
      5258       238  BUTA      DC4           -22.5020950967      -10.5821473736       14.9431646021  BUTA      103             0.0000000000
      5259       238  BUTA      O1            -22.5039284734       -9.9892104295       16.1276937778  BUTA      103             0.0000000000
      5260       238  BUTA      DO1           -22.5308573863      -10.0170594735       16.0794667049  BUTA      103             0.0000000000
      5261       238  BUTA      O2            -22.9530701966      -10.1583147219       13.9086710003  BUTA      103             0.0000000000
      5262       238  BUTA      DO2           -23.0284136594      -10.1473041319       13.8858716861  BUTA      103             0.0000000000
      5263       238  BUTA      H1            -20.2088861178      -13.0542583111       14.0022532285  BUTA      103             0.0000000000
      5264       238  BUTA      H2            -19.8510623777      -11.6123378511       15.0241501378  BUTA      103             0.0000000000
      5265       238  BUTA      H3            -19.2930865994      -13.2394814271       15.5408140506  BUTA      103             0.0000000000
      5266       238  BUTA      H4            -21.3195722067      -12.5399994910       16.8438143650  BUTA      103             0.0000000000
      5267       238  BUTA      H5            -21.6898052581      -13.9695768277       15.8318351928  BUTA      103             0.0000000000
      5268       238  BUTA      H6            -23.4351657945      -12.3843060133       15.7988461135  BUTA      103             0.0000000000
      5269       238  BUTA      H7            -22.7931635346      -12.6158920209       14.1724780385  BUTA      103             0.0000000000
      5270       238  BUTA      H8            -23.0611073434      -10.8344680396       13.2230284798  BUTA      103             0.0000000000
      5271       238  BUTA      H9            -22.5171770721       -9.0222126717       16.0668594864  BUTA      103             0.0000000000
      5272       238  BUTA      LPO11         -22.5430102136      -10.2202213512       16.3877064153  BUTA      103             0.0000000000
      5273       238  BUTA      LPO12         -22.4735920938       -9.6440910787       16.0779711699  BUTA      103             0.0000000000
      5274       238  BUTA      LPO21         -23.0806602049      -10.4245493238       13.7206818343  BUTA      103             0.0000000000
      5275       238  BUTA      LPO22         -22.9178747654       -9.8105171456       13.8914046311  BUTA      103             0.0000000000
      5276       239  BUTA      C1             -0.9946767466      -11.8302176135       -5.8434660565  BUTA      104             0.0000000000
      5277       239  BUTA      DC1            -0.9665239340      -11.7817087775       -5.8562539639  BUTA      104             0.0000000000
      5278       239  BUTA      C2              0.5289793624      -11.8105340415       -5.9198337889  BUTA      104             0.0000000000
      5279       239  BUTA      DC2             0.5224544391      -11.7072471337       -5.9507833614  BUTA      104             0.0000000000
      5280       239  BUTA      C3              1.1540327325      -13.1722636974       -6.2755844952  BUTA      104             0.0000000000
      5281       239  BUTA      DC3             1.1282580566      -13.1438604561       -6.2731642668  BUTA      104             0.0000000000
      5282       239  BUTA      C4              0.7746959415      -14.3512623452       -5.4242273988  BUTA      104             0.0000000000
      5283       239  BUTA      DC4             0.8110512946      -14.3018085089       -5.3833105789  BUTA      104             0.0000000000
      5284       239  BUTA      O1              1.3107280712      -14.3951336963       -4.2660663996  BUTA      104             0.0000000000
      5285       239  BUTA      DO1             1.3365738701      -14.4099340388       -4.2409230896  BUTA      104             0.0000000000
      5286       239  BUTA      O2              0.2434248502      -15.2903463599       -6.0751965343  BUTA      104             0.0000000000
      5287       239  BUTA      DO2             0.2896383395      -15.2339847301       -6.0574898374  BUTA      104             0.0000000000
      5288       239  BUTA      H1             -1.4674952325      -12.0480938740       -6.8249412809  BUTA      104             0.0000000000
      5289       239  BUTA      H2             -1.3144409522      -12.6526743446       -5.1684573315  BUTA      104             0.0000000000
      5290       239  BUTA      H3             -1.4150395476      -10.8824367128       -5.4443075921  BUTA      104             0.0000000000
      5291       239  BUTA      H4              0.9401006329      -11.5473472346       -4.9218192567  BUTA      104             0.0000000000
      5292       239  BUTA      H5              0.8748900961      -11.0510854223       -6.6532535589  BUTA      104             0.0000000000
      5293       239  BUTA      H6              2.2539901856      -13.0207578142       -6.2373671017  BUTA      104             0.0000000000
      5294       239  BUTA      H7              0.9288818035      -13.3450737311       -7.3497189148  BUTA      104             0.0000000000
      5295       239  BUTA      H8              0.0574848326      -15.0846070298       -7.0036676636  BUTA      104             0.0000000000
      5296       239  BUTA      H9              1.0541790875      -15.1724094760       -3.7474278152  BUTA      104             0.0000000000
      5297       239  BUTA      LPO11           1.5198151692      -14.1181972353       -4.2203632048  BUTA      104             0.0000000000
      5298       239  BUTA      LPO12           1.2021413958      -14.6802955772       -4.0946265104  BUTA      104             0.0000000000
      5299       239  BUTA      LPO21           0.2232320909      -15.2047225748       -6.4139601981  BUTA      104             0.0000000000
      5300       239  BUTA      LPO22           0.1626793301      -15.5543904022       -5.8601130511  BUTA      104             0.0000000000
      5301       240  BUTA      C1            -11.9405754247       29.1730412860       -0.5504409030  BUTA      105             0.0000000000
      5302       240  BUTA      DC1           -11.9560127011       29.1911572375       -0.5528303698  BUTA      105             0.0000000000
      5303       240  BUTA      C2            -11.0795462050       27.9118385070       -0.5206139859  BUTA      105             0.0000000000
      5304       240  BUTA      DC2           -11.0056617556       27.9788826558       -0.5206430002  BUTA      105             0.0000000000
      5305       240  BUTA      C3            -11.7300514990       26.7538558592       -1.3075520273  BUTA      105             0.0000000000
      5306       240  BUTA      DC3           -11.7624628405       26.8047913099       -1.2661816322  BUTA      105             0.0000000000
      5307       240  BUTA      C4            -13.1144219940       26.3822231797       -0.8273643432  BUTA      105             0.0000000000
      5308       240  BUTA      DC4           -13.1344312746       26.3919145428       -0.8237494381  BUTA      105             0.0000000000
      5309       240  BUTA      O1            -13.2169312930       26.0644209392        0.4058191783  BUTA      105             0.0000000000
      5310       240  BUTA      DO1           -13.2417305453       26.0709703782        0.4016152094  BUTA      105             0.0000000000
      5311       240  BUTA      O2            -14.0982290824       26.6799858397       -1.5900597081  BUTA      105             0.0000000000
      5312       240  BUTA      DO2           -14.1259440316       26.6833180165       -1.5741535147  BUTA      105             0.0000000000
      5313       240  BUTA      H1            -12.0754224806       29.5240448723       -1.5958756230  BUTA      105             0.0000000000
      5314       240  BUTA      H2            -12.9480266796       28.9426077495       -0.1426868640  BUTA      105             0.0000000000
      5315       240  BUTA      H3            -11.4925280636       29.9913924800        0.0527803551  BUTA      105             0.0000000000
      5316       240  BUTA      H4            -10.9466662428       27.5787582649        0.5309189275  BUTA      105             0.0000000000
      5317       240  BUTA      H5            -10.0693862528       28.1350586285       -0.9256703389  BUTA      105             0.0000000000
      5318       240  BUTA      H6            -11.0253779917       25.8955600567       -1.2746192987  BUTA      105             0.0000000000
      5319       240  BUTA      H7            -11.7213279107       27.0731078722       -2.3716587190  BUTA      105             0.0000000000
      5320       240  BUTA      H8            -13.8333273955       27.0188754136       -2.4583580168  BUTA      105             0.0000000000
      5321       240  BUTA      H9            -14.0941649186       25.7468179213        0.6676406617  BUTA      105             0.0000000000
      5322       240  BUTA      LPO11         -12.9038772283       26.0845177235        0.5610392538  BUTA      105             0.0000000000
      5323       240  BUTA      LPO12         -13.5491950281       25.9847697891        0.4816908108  BUTA      105             0.0000000000
      5324       240  BUTA      LPO21         -13.9815725522       26.8381181217       -1.8796895327  BUTA      105             0.0000000000
      5325       240  BUTA      LPO22         -14.3989079251       26.5775504254       -1.4430929790  BUTA      105             0.0000000000
      5326       241  BUTA      C1              3.8838717785       12.8238037560        4.1776520551  BUTA      106             0.0000000000
      5327       241  BUTA      DC1             3.9004200475       12.8323205586        4.1809000729  BUTA      106             0.0000000000
      5328       241  BUTA      C2              4.6866548562       12.4394188219        5.4068814579  BUTA      106             0.0000000000
      5329       241  BUTA      DC2             4.6562875117       12.3459258965        5.4077268832  BUTA      106             0.0000000000
      5330       241  BUTA      C3              4.9338932633       13.6652651345        6.2935205031  BUTA      106             0.0000000000
      5331       241  BUTA      DC3             4.9450333892       13.6528409385        6.2512867806  BUTA      106             0.0000000000
      5332       241  BUTA      C4              5.7431994823       14.7236224930        5.6232032237  BUTA      106             0.0000000000
      5333       241  BUTA      DC4             5.7813318652       14.6901422883        5.6212329211  BUTA      106             0.0000000000
      5334       241  BUTA      O1              6.9377935945       14.3738104233        5.3395235756  BUTA      106             0.0000000000
      5335       241  BUTA      DO1             6.9691890786       14.3607910017        5.3441481102  BUTA      106             0.0000000000
      5336       241  BUTA      O2              5.1770663323       15.8450123741        5.4365209612  BUTA      106             0.0000000000
      5337       241  BUTA      DO2             5.1893517366       15.8044425621        5.4485353382  BUTA      106             0.0000000000
      5338       241  BUTA      H1              2.8972243909       13.2507944083        4.4578785997  BUTA      106             0.0000000000
      5339       241  BUTA      H2              4.4277247422       13.6068263651        3.6071956167  BUTA      106             0.0000000000
      5340       241  BUTA      H3              3.7041907869       11.9411502385        3.5272994513  BUTA      106             0.0000000000
      5341       241  BUTA      H4              5.6654632499       12.0156993771        5.0958879511  BUTA      106             0.0000000000
      5342       241  BUTA      H5              4.1327017302       11.6670426630        5.9821135879  BUTA      106             0.0000000000
      5343       241  BUTA      H6              5.4184265872       13.3062322907        7.2266034979  BUTA      106             0.0000000000
      5344       241  BUTA      H7              3.9304026836       14.0241057742        6.6074648487  BUTA      106             0.0000000000
      5345       241  BUTA      H8              4.2592327326       15.8851606469        5.7446290582  BUTA      106             0.0000000000
      5346       241  BUTA      H9              7.4734895206       15.0781627292        4.9447088040  BUTA      106             0.0000000000
      5347       241  BUTA      LPO11           6.9934556128       14.0438370643        5.4420873219  BUTA      106             0.0000000000
      5348       241  BUTA      LPO12           7.1061531883       14.6381837069        5.1837615325  BUTA      106             0.0000000000
      5349       241  BUTA      LPO21           4.8497381837       15.8359044955        5.5601062745  BUTA      106             0.0000000000
      5350       241  BUTA      LPO22           5.3976689504       16.0655209274        5.2777429312  BUTA      106             0.0000000000
      5351       242  BUTA      C1             17.9342926630       -1.1087846288       16.7835878986  BUTA      107             0.0000000000
      5352       242  BUTA      DC1            17.9045378109       -1.1022884659       16.7771569792  BUTA      107             0.0000000000
      5353       242  BUTA      C2             16.4111118985       -1.1742126199       16.6879740185  BUTA      107             0.0000000000
      5354       242  BUTA      DC2            16.3852114319       -1.2874536195       16.6467174892  BUTA      107             0.0000000000
      5355       242  BUTA      C3             15.8442509712        0.1476484447       16.1865939998  BUTA      107             0.0000000000
      5356       242  BUTA      DC3            15.8504543964        0.1107024182       16.2074479613  BUTA      107             0.0000000000
      5357       242  BUTA      C4             16.0872152417        1.2940030008       17.0632296160  BUTA      107             0.0000000000
      5358       242  BUTA      DC4            16.0757867719        1.2640305613       17.0644151202  BUTA      107             0.0000000000
      5359       242  BUTA      O1             15.5545283472        1.1801859646       18.2166339689  BUTA      107             0.0000000000
      5360       242  BUTA      DO1            15.5415709811        1.1772866048       18.2053425194  BUTA      107             0.0000000000
      5361       242  BUTA      O2             16.6018332885        2.3066151926       16.4974469020  BUTA      107             0.0000000000
      5362       242  BUTA      DO2            16.5887183506        2.2770130722       16.4974886128  BUTA      107             0.0000000000
      5363       242  BUTA      H1             18.3920618606       -0.8750908415       15.7986231401  BUTA      107             0.0000000000
      5364       242  BUTA      H2             18.2389388848       -0.3064740175       17.4891439651  BUTA      107             0.0000000000
      5365       242  BUTA      H3             18.3814222174       -2.0526728874       17.1623637121  BUTA      107             0.0000000000
      5366       242  BUTA      H4             15.9903226264       -1.4073515287       17.6894247861  BUTA      107             0.0000000000
      5367       242  BUTA      H5             16.0959782839       -1.9621938798       15.9709682034  BUTA      107             0.0000000000
      5368       242  BUTA      H6             14.7426376093        0.0523215193       16.0785117182  BUTA      107             0.0000000000
      5369       242  BUTA      H7             16.2171288160        0.2765809989       15.1480086594  BUTA      107             0.0000000000
      5370       242  BUTA      H8             16.8558397246        2.1589988094       15.5740557964  BUTA      107             0.0000000000
      5371       242  BUTA      H9             15.6940613416        1.9435946654       18.7968914109  BUTA      107             0.0000000000
      5372       242  BUTA      LPO11          15.3845123816        0.8751782658       18.2404010709  BUTA      107             0.0000000000
      5373       242  BUTA      LPO12          15.6245624737        1.4638309516       18.4093533049  BUTA      107             0.0000000000
      5374       242  BUTA      LPO21          16.6527264823        2.2408118097       16.1574766126  BUTA      107             0.0000000000
      5375       242  BUTA      LPO22          16.6480308620        2.5634637503       16.7306734069  BUTA      107             0.0000000000
      5376       243  BUTA      C1             20.8161037685        3.8429200994        0.0657201118  BUTA      108             0.0000000000
      5377       243  BUTA      DC1            20.8067544423        3.8287454901        0.0736251132  BUTA      108             0.0000000000
      5378       243  BUTA      C2             21.6829514777        2.6107361608        0.2674607538  BUTA      108             0.0000000000
      5379       243  BUTA      DC2            21.5892716398        2.5333268859        0.2698638686  BUTA      108             0.0000000000
      5380       243  BUTA      C3             23.1394192450        2.9977060953        0.6106877778  BUTA      108             0.0000000000
      5381       243  BUTA      DC3            23.0861325036        3.0090763976        0.5815682097  BUTA      108             0.0000000000
      5382       243  BUTA      C4             23.8582815583        3.9911108478       -0.2635823405  BUTA      108             0.0000000000
      5383       243  BUTA      DC4            23.8431070032        3.9727413469       -0.2749239389  BUTA      108             0.0000000000
      5384       243  BUTA      O1             23.9927911649        3.6324072927       -1.4754647338  BUTA      108             0.0000000000
      5385       243  BUTA      DO1            23.9751345211        3.6235441092       -1.4874851900  BUTA      108             0.0000000000
      5386       243  BUTA      O2             24.0993355975        5.1271504477        0.2560496398  BUTA      108             0.0000000000
      5387       243  BUTA      DO2            24.0865312604        5.1106209660        0.2497593530  BUTA      108             0.0000000000
      5388       243  BUTA      H1             20.7409968767        4.4552450278        0.9896996231  BUTA      108             0.0000000000
      5389       243  BUTA      H2             21.3391818607        4.4675655108       -0.6896132049  BUTA      108             0.0000000000
      5390       243  BUTA      H3             19.7959386712        3.6230196927       -0.3153677872  BUTA      108             0.0000000000
      5391       243  BUTA      H4             21.7112419314        2.0164790237       -0.6708244413  BUTA      108             0.0000000000
      5392       243  BUTA      H5             21.2697226848        1.9780515040        1.0818765503  BUTA      108             0.0000000000
      5393       243  BUTA      H6             23.7115915152        2.0475423062        0.6749424917  BUTA      108             0.0000000000
      5394       243  BUTA      H7             23.0876477941        3.3750322226        1.6543667085  BUTA      108             0.0000000000
      5395       243  BUTA      H8             23.8553871513        5.2052939055        1.1905782672  BUTA      108             0.0000000000
      5396       243  BUTA      H9             24.4918354043        4.2507616183       -2.0300400445  BUTA      108             0.0000000000
      5397       243  BUTA      LPO11          23.8486648489        3.3171262325       -1.5236877375  BUTA      108             0.0000000000
      5398       243  BUTA      LPO12          24.1622547789        3.8801201021       -1.6555215238  BUTA      108             0.0000000000
      5399       243  BUTA      LPO21          23.9776998020        5.1369774969        0.5840864706  BUTA      108             0.0000000000
      5400       243  BUTA      LPO22          24.2663320730        5.3310992347        0.0257952816  BUTA      108             0.0000000000
      5401       244  BUTA      C1             28.8823439140      -16.9235919880       10.9734526988  BUTA      109             0.0000000000
      5402       244  BUTA      DC1            28.8767829642      -16.9094791700       10.9727462299  BUTA      109             0.0000000000
      5403       244  BUTA      C2             28.2585112277      -16.3816628372        9.6920602312  BUTA      109             0.0000000000
      5404       244  BUTA      DC2            28.2674042699      -16.4616440929        9.6524864918  BUTA      109             0.0000000000
      5405       244  BUTA      C3             28.6106889287      -14.8960838839        9.4809320293  BUTA      109             0.0000000000
      5406       244  BUTA      DC3            28.5777688320      -14.9106732137        9.5061337623  BUTA      109             0.0000000000
      5407       244  BUTA      C4             28.0844346813      -13.9231695958       10.5010128255  BUTA      109             0.0000000000
      5408       244  BUTA      DC4            28.0509216085      -13.9284148408       10.4933594341  BUTA      109             0.0000000000
      5409       244  BUTA      O1             26.8135836587      -13.9107613336       10.6292614214  BUTA      109             0.0000000000
      5410       244  BUTA      DO1            26.7916053576      -13.8974205951       10.6250369980  BUTA      109             0.0000000000
      5411       244  BUTA      O2             28.9133411596      -13.0969661886       11.0040981384  BUTA      109             0.0000000000
      5412       244  BUTA      DO2            28.8880826841      -13.1009868639       10.9831023204  BUTA      109             0.0000000000
      5413       244  BUTA      H1             29.9897096594      -16.8445437433       10.9308677219  BUTA      109             0.0000000000
      5414       244  BUTA      H2             28.5421418206      -16.3269778302       11.8467425034  BUTA      109             0.0000000000
      5415       244  BUTA      H3             28.6133239160      -17.9876277229       11.1460133999  BUTA      109             0.0000000000
      5416       244  BUTA      H4             27.1531334215      -16.4812640847        9.7424635830  BUTA      109             0.0000000000
      5417       244  BUTA      H5             28.6171473281      -16.9741840253        8.8233716857  BUTA      109             0.0000000000
      5418       244  BUTA      H6             28.2249902130      -14.6403949868        8.4708920853  BUTA      109             0.0000000000
      5419       244  BUTA      H7             29.7156603119      -14.8512580894        9.3743961628  BUTA      109             0.0000000000
      5420       244  BUTA      H8             29.8356455703      -13.2656765615       10.7594506694  BUTA      109             0.0000000000
      5421       244  BUTA      H9             26.4922354281      -13.2542633750       11.2654270799  BUTA      109             0.0000000000
      5422       244  BUTA      LPO11          26.6689404535      -14.1427155742       10.4106851797  BUTA      109             0.0000000000
      5423       244  BUTA      LPO12          26.7200338591      -13.6764814378       10.8718750348  BUTA      109             0.0000000000
      5424       244  BUTA      LPO21          29.2314660841      -13.1484026336       10.8675301167  BUTA      109             0.0000000000
      5425       244  BUTA      LPO22          28.7510005453      -12.8902534474       11.2352157872  BUTA      109             0.0000000000
      5426       245  BUTA      C1              8.6618231157        9.6362430729      -18.5480693950  BUTA      110             0.0000000000
      5427       245  BUTA      DC1             8.6802201605        9.6271343391      -18.5806030242  BUTA      110             0.0000000000
      5428       245  BUTA      C2              7.5176358976       10.5654034311      -18.9341326540  BUTA      110             0.0000000000
      5429       245  BUTA      DC2             7.4876927217       10.4980076287      -18.9525467677  BUTA      110             0.0000000000
      5430       245  BUTA      C3              7.9847922752       11.7453685614      -19.8073992208  BUTA      110             0.0000000000
      5431       245  BUTA      DC3             8.0117043319       11.7315682270      -19.8096070242  BUTA      110             0.0000000000
      5432       245  BUTA      C4              9.0656227893       12.6213228799      -19.2283350178  BUTA      110             0.0000000000
      5433       245  BUTA      DC4             9.0763879820       12.6102695728      -19.2486038021  BUTA      110             0.0000000000
      5434       245  BUTA      O1              8.7417314912       13.3164126729      -18.2141846765  BUTA      110             0.0000000000
      5435       245  BUTA      DO1             8.7552116020       13.3012791417      -18.2414436112  BUTA      110             0.0000000000
      5436       245  BUTA      O2             10.1567246247       12.6477985260      -19.8927048402  BUTA      110             0.0000000000
      5437       245  BUTA      DO2            10.1631125639       12.6463511734      -19.9083472651  BUTA      110             0.0000000000
      5438       245  BUTA      H1              9.1059140948        9.1460569227      -19.4407181167  BUTA      110             0.0000000000
      5439       245  BUTA      H2              9.4649104959       10.2198936921      -18.0493474122  BUTA      110             0.0000000000
      5440       245  BUTA      H3              8.3170604590        8.8554640644      -17.8368423912  BUTA      110             0.0000000000
      5441       245  BUTA      H4              7.0682320373       10.9871749325      -18.0097593680  BUTA      110             0.0000000000
      5442       245  BUTA      H5              6.7196604495        9.9990152372      -19.4602130642  BUTA      110             0.0000000000
      5443       245  BUTA      H6              7.0610122894       12.3279159390      -20.0113357077  BUTA      110             0.0000000000
      5444       245  BUTA      H7              8.2779202218       11.3049918902      -20.7843666691  BUTA      110             0.0000000000
      5445       245  BUTA      H8             10.1677182054       12.0735129725      -20.6731125824  BUTA      110             0.0000000000
      5446       245  BUTA      H9              9.4271425987       13.9194439361      -17.8893371594  BUTA      110             0.0000000000
      5447       245  BUTA      LPO11           8.4070821648       13.2572680165      -18.1304485555  BUTA      110             0.0000000000
      5448       245  BUTA      LPO12           9.0153915264       13.5064439386      -18.1069545353  BUTA      110             0.0000000000
      5449       245  BUTA      LPO21          10.1301405430       12.4423016388      -20.1747763133  BUTA      110             0.0000000000
      5450       245  BUTA      LPO22          10.3877535936       12.8582562797      -19.7351194682  BUTA      110             0.0000000000
      5451       246  BUTA      C1            -11.2097525505       -0.2127949776       17.8357525368  BUTA      111             0.0000000000
      5452       246  BUTA      DC1           -11.1869729162       -0.2321945946       17.8170695486  BUTA      111             0.0000000000
      5453       246  BUTA      C2            -10.0599061952       -1.1632648205       17.5916680559  BUTA      111             0.0000000000
      5454       246  BUTA      DC2           -10.0697690885       -1.2417525359       17.6557314840  BUTA      111             0.0000000000
      5455       246  BUTA      C3             -8.8592526278       -0.3227526546       17.1591650883  BUTA      111             0.0000000000
      5456       246  BUTA      DC3            -8.9048938645       -0.3270207975       17.1211025640  BUTA      111             0.0000000000
      5457       246  BUTA      C4             -9.1528057724        0.4656892418       15.9253316989  BUTA      111             0.0000000000
      5458       246  BUTA      DC4            -9.1673495807        0.4032292634       15.8618976001  BUTA      111             0.0000000000
      5459       246  BUTA      O1             -9.3449094206       -0.2437722311       14.8854241923  BUTA      111             0.0000000000
      5460       246  BUTA      DO1            -9.3383062548       -0.2777658414       14.8111137488  BUTA      111             0.0000000000
      5461       246  BUTA      O2             -9.1996067812        1.7322159139       16.0050378883  BUTA      111             0.0000000000
      5462       246  BUTA      DO2            -9.2067188601        1.6905217869       15.9814749849  BUTA      111             0.0000000000
      5463       246  BUTA      H1            -10.9383449721        0.5016836567       18.6420894430  BUTA      111             0.0000000000
      5464       246  BUTA      H2            -11.4241429543        0.4134400860       16.9434591992  BUTA      111             0.0000000000
      5465       246  BUTA      H3            -12.1425459674       -0.7582136793       18.0940854293  BUTA      111             0.0000000000
      5466       246  BUTA      H4            -10.3261879499       -1.8932039903       16.7975623729  BUTA      111             0.0000000000
      5467       246  BUTA      H5             -9.8412683461       -1.7217005351       18.5269049476  BUTA      111             0.0000000000
      5468       246  BUTA      H6             -7.9848502593       -1.0003191314       17.0559896626  BUTA      111             0.0000000000
      5469       246  BUTA      H7             -8.6298075495        0.3318480513       18.0270209933  BUTA      111             0.0000000000
      5470       246  BUTA      H8             -9.0234090879        2.0816631867       16.8914926116  BUTA      111             0.0000000000
      5471       246  BUTA      H9             -9.5333031547        0.2696838142       14.0855293926  BUTA      111             0.0000000000
      5472       246  BUTA      LPO11          -9.3143946275       -0.5832791881       14.9648211289  BUTA      111             0.0000000000
      5473       246  BUTA      LPO12          -9.4115408398       -0.0376482422       14.6105184718  BUTA      111             0.0000000000
      5474       246  BUTA      LPO21          -9.1369003845        1.8338538636       16.3340327743  BUTA      111             0.0000000000
      5475       246  BUTA      LPO22          -9.2711366016        1.8693570381       15.6910700606  BUTA      111             0.0000000000
      5476       247  BUTA      C1            -16.8107848264      -22.8567132171        0.2038465287  BUTA      112             0.0000000000
      5477       247  BUTA      DC1           -16.8230208124      -22.8439055338        0.1758913806  BUTA      112             0.0000000000
      5478       247  BUTA      C2            -16.9327376855      -21.3701408011       -0.1041397550  BUTA      112             0.0000000000
      5479       247  BUTA      DC2           -16.8437574211      -21.3434009174       -0.0797402893  BUTA      112             0.0000000000
      5480       247  BUTA      C3            -18.3805391412      -20.8878107493        0.0730684521  BUTA      112             0.0000000000
      5481       247  BUTA      DC3           -18.3667392977      -20.9160219017        0.0498099024  BUTA      112             0.0000000000
      5482       247  BUTA      C4            -19.4295656672      -21.5419193388       -0.7915929431  BUTA      112             0.0000000000
      5483       247  BUTA      DC4           -19.4195216134      -21.5358399105       -0.8151263937  BUTA      112             0.0000000000
      5484       247  BUTA      O1            -19.3553318472      -21.2934292927       -2.0436197321  BUTA      112             0.0000000000
      5485       247  BUTA      DO1           -19.3592837779      -21.2954169511       -2.0611432783  BUTA      112             0.0000000000
      5486       247  BUTA      O2            -20.3411098806      -22.1988183557       -0.1899332676  BUTA      112             0.0000000000
      5487       247  BUTA      DO2           -20.3354520505      -22.1802530080       -0.2034241839  BUTA      112             0.0000000000
      5488       247  BUTA      H1            -17.0955309494      -23.0626661417        1.2578029036  BUTA      112             0.0000000000
      5489       247  BUTA      H2            -17.5057641096      -23.4374059487       -0.4396756122  BUTA      112             0.0000000000
      5490       247  BUTA      H3            -15.7769489764      -23.2301530627        0.0424553363  BUTA      112             0.0000000000
      5491       247  BUTA      H4            -16.6285106247      -21.1743571683       -1.1545852154  BUTA      112             0.0000000000
      5492       247  BUTA      H5            -16.2670417748      -20.7900885497        0.5701816372  BUTA      112             0.0000000000
      5493       247  BUTA      H6            -18.3393783194      -19.7913170040       -0.1010816374  BUTA      112             0.0000000000
      5494       247  BUTA      H7            -18.6060601690      -20.9997499058        1.1551640538  BUTA      112             0.0000000000
      5495       247  BUTA      H8            -20.2569351575      -22.2069752024        0.7753693184  BUTA      112             0.0000000000
      5496       247  BUTA      H9            -20.0754815239      -21.6779029446       -2.5656594382  BUTA      112             0.0000000000
      5497       247  BUTA      LPO11         -19.0849117890      -21.0806400807       -2.1076020996  BUTA      112             0.0000000000
      5498       247  BUTA      LPO12         -19.6118518875      -21.4596896301       -2.2140749144  BUTA      112             0.0000000000
      5499       247  BUTA      LPO21         -20.2892059781      -22.1862850424        0.1559697548  BUTA      112             0.0000000000
      5500       247  BUTA      LPO22         -20.5642429826      -22.3347469922       -0.4228174117  BUTA      112             0.0000000000
      5501       248  BUTA      C1             14.9226587439       21.0064416985        9.6084430803  BUTA      113             0.0000000000
      5502       248  BUTA      DC1            14.9420912149       21.0072613218        9.5826039157  BUTA      113             0.0000000000
      5503       248  BUTA      C2             15.0331034506       20.9867194326        8.0895594412  BUTA      113             0.0000000000
      5504       248  BUTA      DC2            14.9819851712       20.9401835562        8.0805406982  BUTA      113             0.0000000000
      5505       248  BUTA      C3             16.4980511789       21.0261032158        7.6092006118  BUTA      113             0.0000000000
      5506       248  BUTA      DC3            16.5046940030       21.0588732151        7.6366315546  BUTA      113             0.0000000000
      5507       248  BUTA      C4             17.3265532023       22.2019473410        7.9833625731  BUTA      113             0.0000000000
      5508       248  BUTA      DC4            17.3275620797       22.2310640932        7.9814409778  BUTA      113             0.0000000000
      5509       248  BUTA      O1             16.9339031681       23.3142025197        7.4991562228  BUTA      113             0.0000000000
      5510       248  BUTA      DO1            16.9438606598       23.3248838023        7.4809285958  BUTA      113             0.0000000000
      5511       248  BUTA      O2             18.4173502280       21.9881348058        8.6150647951  BUTA      113             0.0000000000
      5512       248  BUTA      DO2            18.4161279992       21.9999158604        8.6036703830  BUTA      113             0.0000000000
      5513       248  BUTA      H1             15.4473224252       20.1331593609       10.0516439156  BUTA      113             0.0000000000
      5514       248  BUTA      H2             15.3939625168       21.9201401134       10.0295712790  BUTA      113             0.0000000000
      5515       248  BUTA      H3             13.8638870251       20.9887756605        9.9446147004  BUTA      113             0.0000000000
      5516       248  BUTA      H4             14.4988140336       21.8653059130        7.6689151541  BUTA      113             0.0000000000
      5517       248  BUTA      H5             14.5318814095       20.0800292956        7.6882983531  BUTA      113             0.0000000000
      5518       248  BUTA      H6             16.4556542183       20.9306018962        6.5031251186  BUTA      113             0.0000000000
      5519       248  BUTA      H7             16.9383653967       20.0732597218        7.9732523463  BUTA      113             0.0000000000
      5520       248  BUTA      H8             18.5501955282       21.0654326345        8.8795148459  BUTA      113             0.0000000000
      5521       248  BUTA      H9             17.4700762549       24.0753421989        7.7677559431  BUTA      113             0.0000000000
      5522       248  BUTA      LPO11          16.6474631777       23.2653720223        7.3040467292  BUTA      113             0.0000000000
      5523       248  BUTA      LPO12          17.1466156379       23.5718801059        7.6033467540  BUTA      113             0.0000000000
      5524       248  BUTA      LPO21          18.4605303347       21.6446409687        8.6665182916  BUTA      113             0.0000000000
      5525       248  BUTA      LPO22          18.5784321795       22.2915902237        8.6819035133  BUTA      113             0.0000000000
      5526       249  BUTA      C1            -16.3045240536       14.7200371388      -18.1686723349  BUTA      114             0.0000000000
      5527       249  BUTA      DC1           -16.3062741040       14.6991362739      -18.2173840157  BUTA      114             0.0000000000
      5528       249  BUTA      C2            -17.0478349260       14.0289904999      -17.0331935572  BUTA      114             0.0000000000
      5529       249  BUTA      DC2           -16.9730876272       13.9995330871      -17.0217005905  BUTA      114             0.0000000000
      5530       249  BUTA      C3            -18.1917210525       13.0828177549      -17.4826650051  BUTA      114             0.0000000000
      5531       249  BUTA      DC3           -18.1896902017       13.1035207336      -17.5203748060  BUTA      114             0.0000000000
      5532       249  BUTA      C4            -19.3013840372       13.6050603671      -18.3804054423  BUTA      114             0.0000000000
      5533       249  BUTA      DC4           -19.3013972704       13.5745242986      -18.4357458123  BUTA      114             0.0000000000
      5534       249  BUTA      O1            -20.0750965311       14.4750056967      -17.8641656646  BUTA      114             0.0000000000
      5535       249  BUTA      DO1           -20.0581347120       14.4457215081      -17.8832127555  BUTA      114             0.0000000000
      5536       249  BUTA      O2            -19.4513784667       13.0082960922      -19.5084911429  BUTA      114             0.0000000000
      5537       249  BUTA      DO2           -19.4735483200       12.9763164152      -19.5555336246  BUTA      114             0.0000000000
      5538       249  BUTA      H1            -15.7429974149       13.9935850603      -18.7941930881  BUTA      114             0.0000000000
      5539       249  BUTA      H2            -17.0345094067       15.2605471399      -18.8084311355  BUTA      114             0.0000000000
      5540       249  BUTA      H3            -15.5844697362       15.4611177724      -17.7604539171  BUTA      114             0.0000000000
      5541       249  BUTA      H4            -17.5017644940       14.8252724714      -16.4053369092  BUTA      114             0.0000000000
      5542       249  BUTA      H5            -16.3247780895       13.4885743554      -16.3855360845  BUTA      114             0.0000000000
      5543       249  BUTA      H6            -18.6275814278       12.7137934292      -16.5296866317  BUTA      114             0.0000000000
      5544       249  BUTA      H7            -17.6853031785       12.1933599476      -17.9147839081  BUTA      114             0.0000000000
      5545       249  BUTA      H8            -18.7677533607       12.3484195530      -19.6987033069  BUTA      114             0.0000000000
      5546       249  BUTA      H9            -20.7896439735       14.7878722056      -18.4390547845  BUTA      114             0.0000000000
      5547       249  BUTA      LPO11         -19.9781725809       14.5407275367      -17.5343378495  BUTA      114             0.0000000000
      5548       249  BUTA      LPO12         -20.3174699106       14.5728239994      -18.0969460859  BUTA      114             0.0000000000
      5549       249  BUTA      LPO21         -19.2163690881       12.7508391134      -19.5398996769  BUTA      114             0.0000000000
      5550       249  BUTA      LPO22         -19.7143341626       13.1545665171      -19.6872626865  BUTA      114             0.0000000000
      5551       250  BUTA      C1             -9.4682045914      -13.8655103730       23.8274624760  BUTA      115             0.0000000000
      5552       250  BUTA      DC1            -9.4437848234      -13.8703108654       23.8323185518  BUTA      115             0.0000000000
      5553       250  BUTA      C2             -9.0473974899      -12.4277172754       24.0931471775  BUTA      115             0.0000000000
      5554       250  BUTA      DC2            -9.0617111700      -12.4268851487       24.0353587926  BUTA      115             0.0000000000
      5555       250  BUTA      C3             -7.7637100394      -12.3635631532       24.9417650311  BUTA      115             0.0000000000
      5556       250  BUTA      DC3            -7.7642956432      -12.3797836766       24.9545689008  BUTA      115             0.0000000000
      5557       250  BUTA      C4             -7.8213555594      -12.9993541983       26.3044955582  BUTA      115             0.0000000000
      5558       250  BUTA      DC4            -7.8309633279      -12.9810242904       26.3140950068  BUTA      115             0.0000000000
      5559       250  BUTA      O1             -8.3544860373      -12.2726072988       27.2109016452  BUTA      115             0.0000000000
      5560       250  BUTA      DO1            -8.3462764866      -12.2572530593       27.2196841453  BUTA      115             0.0000000000
      5561       250  BUTA      O2             -7.0579309933      -14.0095367620       26.4657456691  BUTA      115             0.0000000000
      5562       250  BUTA      DO2            -7.0576854662      -13.9883948697       26.4605081717  BUTA      115             0.0000000000
      5563       250  BUTA      H1             -8.6244077056      -14.4964226704       23.4749323495  BUTA      115             0.0000000000
      5564       250  BUTA      H2             -9.8326509628      -14.3302223374       24.7684952244  BUTA      115             0.0000000000
      5565       250  BUTA      H3            -10.2711983000      -13.9196906486       23.0615730573  BUTA      115             0.0000000000
      5566       250  BUTA      H4             -9.8584822595      -11.8969632288       24.6360676495  BUTA      115             0.0000000000
      5567       250  BUTA      H5             -8.8947538214      -11.8842433230       23.1362475100  BUTA      115             0.0000000000
      5568       250  BUTA      H6             -7.5269751116      -11.2799236488       25.0050343003  BUTA      115             0.0000000000
      5569       250  BUTA      H7             -6.9588393842      -12.7976639531       24.3108444941  BUTA      115             0.0000000000
      5570       250  BUTA      H8             -6.5979527649      -14.2970348648       25.6627974327  BUTA      115             0.0000000000
      5571       250  BUTA      H9             -8.4083198817      -12.6985331255       28.0796076412  BUTA      115             0.0000000000
      5572       250  BUTA      LPO11          -8.4536420730      -11.9655865774       27.0752316148  BUTA      115             0.0000000000
      5573       250  BUTA      LPO12          -8.3551832900      -12.4435111208       27.5163380502  BUTA      115             0.0000000000
      5574       250  BUTA      LPO21          -6.8798280771      -14.0732055281       26.1712534969  BUTA      115             0.0000000000
      5575       250  BUTA      LPO22          -7.0928424896      -14.1353424799       26.7904826531  BUTA      115             0.0000000000
      5576       251  BUTA      C1            -12.1251226688       29.1500022800       19.6341136741  BUTA      116             0.0000000000
      5577       251  BUTA      DC1           -12.1344623325       29.1631883418       19.6149296296  BUTA      116             0.0000000000
      5578       251  BUTA      C2            -12.7472762435       28.2212720950       20.6714730524  BUTA      116             0.0000000000
      5579       251  BUTA      DC2           -12.6632154880       28.2085333560       20.6806988561  BUTA      116             0.0000000000
      5580       251  BUTA      C3            -14.1278906435       27.6719335721       20.2452133698  BUTA      116             0.0000000000
      5581       251  BUTA      DC3           -14.1172268211       27.7188666663       20.2321233180  BUTA      116             0.0000000000
      5582       251  BUTA      C4            -15.2372152323       28.6404759854       19.9360791933  BUTA      116             0.0000000000
      5583       251  BUTA      DC4           -15.2422355657       28.6459124373       19.9203927224  BUTA      116             0.0000000000
      5584       251  BUTA      O1            -15.6056218339       29.3935064295       20.8966957405  BUTA      116             0.0000000000
      5585       251  BUTA      DO1           -15.6070303623       29.3897640801       20.8879280163  BUTA      116             0.0000000000
      5586       251  BUTA      O2            -15.6995051750       28.6046007806       18.7438349705  BUTA      116             0.0000000000
      5587       251  BUTA      DO2           -15.7005938250       28.5982000403       18.7291529275  BUTA      116             0.0000000000
      5588       251  BUTA      H1            -12.0461059623       28.6415719558       18.6494431874  BUTA      116             0.0000000000
      5589       251  BUTA      H2            -12.7648376758       30.0501616942       19.5124636021  BUTA      116             0.0000000000
      5590       251  BUTA      H3            -11.1112427350       29.4835350049       19.9425361139  BUTA      116             0.0000000000
      5591       251  BUTA      H4            -12.8656073027       28.7627306943       21.6343548446  BUTA      116             0.0000000000
      5592       251  BUTA      H5            -12.0706045884       27.3583257707       20.8496867274  BUTA      116             0.0000000000
      5593       251  BUTA      H6            -14.4403364781       26.9757441869       21.0526902684  BUTA      116             0.0000000000
      5594       251  BUTA      H7            -13.8952862206       27.0136868808       19.3809637093  BUTA      116             0.0000000000
      5595       251  BUTA      H8            -15.2476221886       27.9803376937       18.1564182828  BUTA      116             0.0000000000
      5596       251  BUTA      H9            -16.3316180343       30.0002595852       20.6875519502  BUTA      116             0.0000000000
      5597       251  BUTA      LPO11         -15.4167938134       29.3234218581       21.1829336337  BUTA      116             0.0000000000
      5598       251  BUTA      LPO12         -15.8636290173       29.6049945902       20.7908418261  BUTA      116             0.0000000000
      5599       251  BUTA      LPO21         -15.5309909066       28.3610060993       18.5573823691  BUTA      116             0.0000000000
      5600       251  BUTA      LPO22         -15.9545388282       28.8414812759       18.7071543668  BUTA      116             0.0000000000
      5601       252  BUTA      C1             28.4593288255       15.1342524016       24.5753955850  BUTA      117             0.0000000000
      5602       252  BUTA      DC1            28.4050954453       15.1454114568       24.5444612207  BUTA      117             0.0000000000
      5603       252  BUTA      C2             27.7656574798       15.5366326861       23.2876337440  BUTA      117             0.0000000000
      5604       252  BUTA      DC2            27.7889078196       15.6177516720       23.2606996158  BUTA      117             0.0000000000
      5605       252  BUTA      C3             26.3497415785       14.9456342228       23.1762585607  BUTA      117             0.0000000000
      5606       252  BUTA      DC3            26.3502321228       14.9341647918       23.1562801846  BUTA      117             0.0000000000
      5607       252  BUTA      C4             26.2775214385       13.4899620506       22.8575774934  BUTA      117             0.0000000000
      5608       252  BUTA      DC4            26.2884243302       13.5008131261       22.8066424435  BUTA      117             0.0000000000
      5609       252  BUTA      O1             26.5572075544       13.2748016946       21.6251752803  BUTA      117             0.0000000000
      5610       252  BUTA      DO1            26.5468988276       13.3118397965       21.5760593908  BUTA      117             0.0000000000
      5611       252  BUTA      O2             25.4534381797       12.8601935867       23.5983672360  BUTA      117             0.0000000000
      5612       252  BUTA      DO2            25.4569263571       12.9010692371       23.5754112198  BUTA      117             0.0000000000
      5613       252  BUTA      H1             27.8591191364       15.4180711765       25.4661908658  BUTA      117             0.0000000000
      5614       252  BUTA      H2             28.6122482260       14.0342103497       24.6044497140  BUTA      117             0.0000000000
      5615       252  BUTA      H3             29.4595289924       15.6107265578       24.6584197081  BUTA      117             0.0000000000
      5616       252  BUTA      H4             28.3892814900       15.1365673989       22.4597678960  BUTA      117             0.0000000000
      5617       252  BUTA      H5             27.7239798002       16.6441778088       23.2106417178  BUTA      117             0.0000000000
      5618       252  BUTA      H6             25.8278352784       15.5102292839       22.3742814843  BUTA      117             0.0000000000
      5619       252  BUTA      H7             25.8082252637       15.2361509586       24.1018292541  BUTA      117             0.0000000000
      5620       252  BUTA      H8             25.1507282544       13.3628185965       24.3695324587  BUTA      117             0.0000000000
      5621       252  BUTA      H9             26.6087387322       12.3318760671       21.4079270383  BUTA      117             0.0000000000
      5622       252  BUTA      LPO11          26.6279417713       13.5772716601       21.4639034895  BUTA      117             0.0000000000
      5623       252  BUTA      LPO12          26.5387078778       12.9321481031       21.5562820424  BUTA      117             0.0000000000
      5624       252  BUTA      LPO21          25.3034605101       13.0807553444       23.8249929399  BUTA      117             0.0000000000
      5625       252  BUTA      LPO22          25.4486189832       12.5213353054       23.5108924364  BUTA      117             0.0000000000
      5626       253  BUTA      C1             -8.3811782750        3.7582396164      -20.6726437154  BUTA      118             0.0000000000
      5627       253  BUTA      DC1            -8.3214883446        3.7470133677      -20.6758626886  BUTA      118             0.0000000000
      5628       253  BUTA      C2             -9.4246703631        2.8650787022      -20.0163038977  BUTA      118             0.0000000000
      5629       253  BUTA      DC2            -9.4366945366        2.9327206560      -20.0029248367  BUTA      118             0.0000000000
      5630       253  BUTA      C3             -8.8014277693        1.6020153643      -19.3875631924  BUTA      118             0.0000000000
      5631       253  BUTA      DC3            -8.7659591365        1.6083619363      -19.4510804230  BUTA      118             0.0000000000
      5632       253  BUTA      C4             -7.9908054712        0.7674591179      -20.3239560133  BUTA      118             0.0000000000
      5633       253  BUTA      DC4            -7.8898570987        0.7813729595      -20.3136981421  BUTA      118             0.0000000000
      5634       253  BUTA      O1             -8.6731377589        0.1385517549      -21.1890442069  BUTA      118             0.0000000000
      5635       253  BUTA      DO1            -8.6548306707        0.1765797285      -21.1444952093  BUTA      118             0.0000000000
      5636       253  BUTA      O2             -6.7171902838        0.8619957703      -20.2451753815  BUTA      118             0.0000000000
      5637       253  BUTA      DO2            -6.6259730984        0.8742967851      -20.2836869895  BUTA      118             0.0000000000
      5638       253  BUTA      H1             -7.6510396189        4.1158971300      -19.9154781811  BUTA      118             0.0000000000
      5639       253  BUTA      H2             -7.8363492522        3.1771121125      -21.4470939471  BUTA      118             0.0000000000
      5640       253  BUTA      H3             -8.8550265523        4.6372395544      -21.1596220713  BUTA      118             0.0000000000
      5641       253  BUTA      H4            -10.1671925275        2.5512901824      -20.7808420593  BUTA      118             0.0000000000
      5642       253  BUTA      H5             -9.9815844394        3.4292992750      -19.2379576658  BUTA      118             0.0000000000
      5643       253  BUTA      H6             -9.6541517068        1.0357039941      -18.9557364681  BUTA      118             0.0000000000
      5644       253  BUTA      H7             -8.2228351887        1.9563412316      -18.5077877635  BUTA      118             0.0000000000
      5645       253  BUTA      H8             -6.3999462120        1.3622351095      -19.4783130716  BUTA      118             0.0000000000
      5646       253  BUTA      H9             -8.1652919721       -0.4358680036      -21.7815774110  BUTA      118             0.0000000000
      5647       253  BUTA      LPO11          -9.0136308305        0.2071177308      -21.1458796949  BUTA      118             0.0000000000
      5648       253  BUTA      LPO12          -8.4614112002       -0.0486986357      -21.3954640596  BUTA      118             0.0000000000
      5649       253  BUTA      LPO21          -6.6293593009        1.0904739101      -19.9950085210  BUTA      118             0.0000000000
      5650       253  BUTA      LPO22          -6.5667169632        0.6512062475      -20.4806017115  BUTA      118             0.0000000000
      5651       254  BUTA      C1             -2.0594306462       18.2530116109      -19.0957747078  BUTA      119             0.0000000000
      5652       254  BUTA      DC1            -2.0413401178       18.2925458968      -19.1059827199  BUTA      119             0.0000000000
      5653       254  BUTA      C2             -1.9634570896       19.6307850571      -19.7506208209  BUTA      119             0.0000000000
      5654       254  BUTA      DC2            -1.8537108878       19.6354434143      -19.7683657386  BUTA      119             0.0000000000
      5655       254  BUTA      C3             -2.9351582317       20.6291309090      -19.1024110840  BUTA      119             0.0000000000
      5656       254  BUTA      DC3            -2.8992061546       20.6137507912      -19.1045082507  BUTA      119             0.0000000000
      5657       254  BUTA      C4             -4.3782015083       20.2767143118      -19.2344955920  BUTA      119             0.0000000000
      5658       254  BUTA      DC4            -4.3342473439       20.2842742290      -19.2709375622  BUTA      119             0.0000000000
      5659       254  BUTA      O1             -4.8095838201       20.2359105336      -20.4328473788  BUTA      119             0.0000000000
      5660       254  BUTA      DO1            -4.8100410777       20.2375891280      -20.4319872693  BUTA      119             0.0000000000
      5661       254  BUTA      O2             -5.0230760115       20.1739979445      -18.1496550510  BUTA      119             0.0000000000
      5662       254  BUTA      DO2            -4.9937812893       20.1924832198      -18.1972794950  BUTA      119             0.0000000000
      5663       254  BUTA      H1             -1.8663714450       18.2871047919      -18.0022086144  BUTA      119             0.0000000000
      5664       254  BUTA      H2             -3.0890686282       17.8486566042      -19.1990396904  BUTA      119             0.0000000000
      5665       254  BUTA      H3             -1.3578267353       17.5259308744      -19.5577558272  BUTA      119             0.0000000000
      5666       254  BUTA      H4             -2.2370908521       19.5429568403      -20.8238084879  BUTA      119             0.0000000000
      5667       254  BUTA      H5             -0.9200849924       20.0101489801      -19.7084463999  BUTA      119             0.0000000000
      5668       254  BUTA      H6             -2.7441565354       21.6234552414      -19.5597495516  BUTA      119             0.0000000000
      5669       254  BUTA      H7             -2.6306916555       20.7193097150      -18.0377567324  BUTA      119             0.0000000000
      5670       254  BUTA      H8             -4.4794609421       20.2468605135      -17.3508217127  BUTA      119             0.0000000000
      5671       254  BUTA      H9             -5.7570463624       20.0463858362      -20.5060329090  BUTA      119             0.0000000000
      5672       254  BUTA      LPO11          -4.5510062144       20.3127984484      -20.6558403617  BUTA      119             0.0000000000
      5673       254  BUTA      LPO12          -5.1492100103       20.1513563598      -20.4350020516  BUTA      119             0.0000000000
      5674       254  BUTA      LPO21          -4.8115681029       20.2377246910      -17.8781715222  BUTA      119             0.0000000000
      5675       254  BUTA      LPO22          -5.3565161490       20.0908496895      -18.2160180104  BUTA      119             0.0000000000
      5676       255  BUTA      C1            -15.7331583735        9.3225125618       20.7771943367  BUTA      120             0.0000000000
      5677       255  BUTA      DC1           -15.7236576276        9.2977332797       20.8029791006  BUTA      120             0.0000000000
      5678       255  BUTA      C2            -14.2995375451        8.8139412863       20.6509553198  BUTA      120             0.0000000000
      5679       255  BUTA      DC2           -14.3301093751        8.7102841873       20.6585003666  BUTA      120             0.0000000000
      5680       255  BUTA      C3            -13.2779725975        9.7502537158       21.3241753995  BUTA      120             0.0000000000
      5681       255  BUTA      DC3           -13.3212153541        9.7380404209       21.3192496105  BUTA      120             0.0000000000
      5682       255  BUTA      C4            -13.2894240172       11.1761589871       20.8571591272  BUTA      120             0.0000000000
      5683       255  BUTA      DC4           -13.2950493772       11.1581595413       20.8740116964  BUTA      120             0.0000000000
      5684       255  BUTA      O1            -12.9780651108       11.3469850043       19.6351789971  BUTA      120             0.0000000000
      5685       255  BUTA      DO1           -12.9856803179       11.3396639499       19.6593513785  BUTA      120             0.0000000000
      5686       255  BUTA      O2            -13.6053802370       12.0402472041       21.7419791650  BUTA      120             0.0000000000
      5687       255  BUTA      DO2           -13.6015909406       12.0312357871       21.7507776111  BUTA      120             0.0000000000
      5688       255  BUTA      H1            -16.0356681453        9.4333696242       21.8404532653  BUTA      120             0.0000000000
      5689       255  BUTA      H2            -15.8107341045       10.3274766234       20.3099147193  BUTA      120             0.0000000000
      5690       255  BUTA      H3            -16.4563379996        8.6573984915       20.2585851349  BUTA      120             0.0000000000
      5691       255  BUTA      H4            -14.0459976628        8.7669567464       19.5702930322  BUTA      120             0.0000000000
      5692       255  BUTA      H5            -14.2070295293        7.7908780152       21.0741630831  BUTA      120             0.0000000000
      5693       255  BUTA      H6            -12.2754366550        9.3006086637       21.1596700422  BUTA      120             0.0000000000
      5694       255  BUTA      H7            -13.4575502774        9.6671869263       22.4174149731  BUTA      120             0.0000000000
      5695       255  BUTA      H8            -13.8182047131       11.6682038505       22.6110306511  BUTA      120             0.0000000000
      5696       255  BUTA      H9            -12.9446333062       12.2717170245       19.3475785704  BUTA      120             0.0000000000
      5697       255  BUTA      LPO11         -12.9082666168       11.0385528708       19.4851863665  BUTA      120             0.0000000000
      5698       255  BUTA      LPO12         -12.9892849850       11.6875561007       19.5552700317  BUTA      120             0.0000000000
      5699       255  BUTA      LPO21         -13.6709415236       11.8810658552       22.0467135015  BUTA      120             0.0000000000
      5700       255  BUTA      LPO22         -13.5990794088       12.3614961452       21.6032008620  BUTA      120             0.0000000000
      5701       256  BUTA      C1              1.9672511342        8.3805893980        4.2052491127  BUTA      121             0.0000000000
      5702       256  BUTA      DC1             1.9908178329        8.3632914002        4.1925415566  BUTA      121             0.0000000000
      5703       256  BUTA      C2              3.1021858119        9.2255902990        4.7612474350  BUTA      121             0.0000000000
      5704       256  BUTA      DC2             3.0618016665        9.2610189592        4.7641973828  BUTA      121             0.0000000000
      5705       256  BUTA      C3              4.4327569274        8.9584768166        4.0226610981  BUTA      121             0.0000000000
      5706       256  BUTA      DC3             4.4354000125        8.9118665253        4.0180426855  BUTA      121             0.0000000000
      5707       256  BUTA      C4              5.0555218318        7.5861808269        4.0228375911  BUTA      121             0.0000000000
      5708       256  BUTA      DC4             5.0692591893        7.5650915212        4.0051086377  BUTA      121             0.0000000000
      5709       256  BUTA      O1              5.4952667367        7.1841038729        5.1498790789  BUTA      121             0.0000000000
      5710       256  BUTA      DO1             5.4992941691        7.1888153894        5.1409146500  BUTA      121             0.0000000000
      5711       256  BUTA      O2              5.2690918994        7.0498982190        2.8774702491  BUTA      121             0.0000000000
      5712       256  BUTA      DO2             5.2875505954        7.0455209324        2.8535705278  BUTA      121             0.0000000000
      5713       256  BUTA      H1              1.7880539471        8.6063466283        3.1322891679  BUTA      121             0.0000000000
      5714       256  BUTA      H2              2.2404026614        7.3063088171        4.2802856180  BUTA      121             0.0000000000
      5715       256  BUTA      H3              1.0212219676        8.5505416475        4.7624439161  BUTA      121             0.0000000000
      5716       256  BUTA      H4              3.2413956835        9.0228260195        5.8446809866  BUTA      121             0.0000000000
      5717       256  BUTA      H5              2.8311038849       10.2982793491        4.6603822252  BUTA      121             0.0000000000
      5718       256  BUTA      H6              5.1378526510        9.7276699894        4.4041095007  BUTA      121             0.0000000000
      5719       256  BUTA      H7              4.2003194307        9.2773536897        2.9840989430  BUTA      121             0.0000000000
      5720       256  BUTA      H8              4.9269548075        7.5612215377        2.1288370451  BUTA      121             0.0000000000
      5721       256  BUTA      H9              5.9149359577        6.3108753261        5.1322538131  BUTA      121             0.0000000000
      5722       256  BUTA      LPO11           5.4400361247        7.4286699579        5.3940859779  BUTA      121             0.0000000000
      5723       256  BUTA      LPO12           5.6330799554        6.8640290951        5.1173267613  BUTA      121             0.0000000000
      5724       256  BUTA      LPO21           5.1644304364        7.2659239077        2.6227569201  BUTA      121             0.0000000000
      5725       256  BUTA      LPO22           5.4136188354        6.7337688029        2.9183867135  BUTA      121             0.0000000000
      5726       257  BUTA      C1             -5.1947794950      -16.8170856556       -4.9452484390  BUTA      122             0.0000000000
      5727       257  BUTA      DC1            -5.2353212237      -16.8282998086       -4.9329312257  BUTA      122             0.0000000000
      5728       257  BUTA      C2             -3.6986755553      -17.0657284903       -4.8425409139  BUTA      122             0.0000000000
      5729       257  BUTA      DC2            -3.7641862242      -17.1643555624       -4.8208685651  BUTA      122             0.0000000000
      5730       257  BUTA      C3             -2.8863866768      -15.8423951583       -4.3513043937  BUTA      122             0.0000000000
      5731       257  BUTA      DC3            -2.9584736773      -15.8485276302       -4.3665406874  BUTA      122             0.0000000000
      5732       257  BUTA      C4             -3.0838064405      -14.4931545969       -5.0161826212  BUTA      122             0.0000000000
      5733       257  BUTA      DC4            -3.0957529324      -14.4836053691       -5.0035688776  BUTA      122             0.0000000000
      5734       257  BUTA      O1             -2.9113207867      -14.4350316452       -6.2791714185  BUTA      122             0.0000000000
      5735       257  BUTA      DO1            -2.9198328450      -14.4124185284       -6.2673572673  BUTA      122             0.0000000000
      5736       257  BUTA      O2             -3.5089577160      -13.5435607825       -4.2671316533  BUTA      122             0.0000000000
      5737       257  BUTA      DO2            -3.5054581158      -13.5210686418       -4.2693141882  BUTA      122             0.0000000000
      5738       257  BUTA      H1             -5.6347085773      -16.5548115984       -3.9593500042  BUTA      122             0.0000000000
      5739       257  BUTA      H2             -5.3661781211      -15.9240623805       -5.5835688463  BUTA      122             0.0000000000
      5740       257  BUTA      H3             -5.7516076349      -17.6806314771       -5.3678026211  BUTA      122             0.0000000000
      5741       257  BUTA      H4             -3.3091872319      -17.3116173179       -5.8535594748  BUTA      122             0.0000000000
      5742       257  BUTA      H5             -3.4897633876      -17.9252879009       -4.1703546849  BUTA      122             0.0000000000
      5743       257  BUTA      H6             -1.8227016990      -16.1543218415       -4.4261175897  BUTA      122             0.0000000000
      5744       257  BUTA      H7             -3.0759621276      -15.7850085259       -3.2581031666  BUTA      122             0.0000000000
      5745       257  BUTA      H8             -3.6606433050      -13.8026298923       -3.3458088660  BUTA      122             0.0000000000
      5746       257  BUTA      H9             -2.9989676063      -13.5485207773       -6.6604554544  BUTA      122             0.0000000000
      5747       257  BUTA      LPO11          -2.8242063729      -14.7506908316       -6.4027447041  BUTA      122             0.0000000000
      5748       257  BUTA      LPO12          -2.9660728949      -14.1084672461       -6.3925640986  BUTA      122             0.0000000000
      5749       257  BUTA      LPO21          -3.5551682992      -13.6603367142       -3.9404391928  BUTA      122             0.0000000000
      5750       257  BUTA      LPO22          -3.5421434783      -13.2494496696       -4.4539400002  BUTA      122             0.0000000000
      5751       258  BUTA      C1              4.3061576713       -0.8546678928       19.0268707979  BUTA      123             0.0000000000
      5752       258  BUTA      DC1             4.3245714466       -0.8342725469       19.0026540511  BUTA      123             0.0000000000
      5753       258  BUTA      C2              4.1253373498        0.5673499184       18.5122748752  BUTA      123             0.0000000000
      5754       258  BUTA      DC2             4.1424770145        0.6162027989       18.5907893866  BUTA      123             0.0000000000
      5755       258  BUTA      C3              3.0951914247        0.6237476646       17.3586342292  BUTA      123             0.0000000000
      5756       258  BUTA      DC3             3.1434446367        0.5969008506       17.3519539807  BUTA      123             0.0000000000
      5757       258  BUTA      C4              3.4509119627       -0.1590919786       16.1124066124  BUTA      123             0.0000000000
      5758       258  BUTA      DC4             3.4780428254       -0.1618698270       16.1007800948  BUTA      123             0.0000000000
      5759       258  BUTA      O1              4.6085813613        0.0746860774       15.6231763221  BUTA      123             0.0000000000
      5760       258  BUTA      DO1             4.6262235560        0.0578311764       15.6112555728  BUTA      123             0.0000000000
      5761       258  BUTA      O2              2.6604543815       -1.0855041630       15.7242468222  BUTA      123             0.0000000000
      5762       258  BUTA      DO2             2.6849579866       -1.0869425725       15.7113975370  BUTA      123             0.0000000000
      5763       258  BUTA      H1              3.3818449476       -1.1737832278       19.5542533848  BUTA      123             0.0000000000
      5764       258  BUTA      H2              4.4714402934       -1.5595525307       18.1841725707  BUTA      123             0.0000000000
      5765       258  BUTA      H3              5.1482126426       -0.9524586976       19.7449943152  BUTA      123             0.0000000000
      5766       258  BUTA      H4              5.1011829984        0.9494391886       18.1434198092  BUTA      123             0.0000000000
      5767       258  BUTA      H5              3.7905372851        1.2173199359       19.3487967779  BUTA      123             0.0000000000
      5768       258  BUTA      H6              2.9276565987        1.6986944333       17.1333732087  BUTA      123             0.0000000000
      5769       258  BUTA      H7              2.1386849078        0.2828780159       17.8094381396  BUTA      123             0.0000000000
      5770       258  BUTA      H8              1.8585968228       -1.1657860166       16.2623362937  BUTA      123             0.0000000000
      5771       258  BUTA      H9              4.7710280505       -0.3613264167       14.7731968057  BUTA      123             0.0000000000
      5772       258  BUTA      LPO11           4.7744118837        0.3141589740       15.8172200534  BUTA      123             0.0000000000
      5773       258  BUTA      LPO12           4.6595622260       -0.1210042465       15.3375082479  BUTA      123             0.0000000000
      5774       258  BUTA      LPO21           2.3872653980       -1.1087196607       15.9417987009  BUTA      123             0.0000000000
      5775       258  BUTA      LPO22           2.7855832602       -1.2358143400       15.4339889809  BUTA      123             0.0000000000
      5776       259  BUTA      C1             22.7709173837      -12.6254873966      -20.5655958676  BUTA      124             0.0000000000
      5777       259  BUTA      DC1            22.7394696826      -12.6482503250      -20.5362543074  BUTA      124             0.0000000000
      5778       259  BUTA      C2             23.5686259519      -13.7941823254      -21.1322686936  BUTA      124             0.0000000000
      5779       259  BUTA      DC2            23.6321092028      -13.7417489848      -21.1457425572  BUTA      124             0.0000000000
      5780       259  BUTA      C3             22.6536526922      -14.8947654306      -21.7050591899  BUTA      124             0.0000000000
      5781       259  BUTA      DC3            22.6565617298      -14.8808041038      -21.6565054120  BUTA      124             0.0000000000
      5782       259  BUTA      C4             21.7693398207      -15.5357017894      -20.6892487960  BUTA      124             0.0000000000
      5783       259  BUTA      DC4            21.7954570330      -15.5504030662      -20.6609117677  BUTA      124             0.0000000000
      5784       259  BUTA      O1             22.4048216617      -16.1742888703      -19.7848872943  BUTA      124             0.0000000000
      5785       259  BUTA      DO1            22.4209440843      -16.1848677307      -19.7554285883  BUTA      124             0.0000000000
      5786       259  BUTA      O2             20.5093013797      -15.3681906124      -20.7916637877  BUTA      124             0.0000000000
      5787       259  BUTA      DO2            20.5324266346      -15.3713592445      -20.7876067126  BUTA      124             0.0000000000
      5788       259  BUTA      H1             22.2325868777      -12.1263130221      -21.3994700853  BUTA      124             0.0000000000
      5789       259  BUTA      H2             22.0134566448      -12.9752189109      -19.8319323909  BUTA      124             0.0000000000
      5790       259  BUTA      H3             23.4256128842      -11.8656279189      -20.0877796085  BUTA      124             0.0000000000
      5791       259  BUTA      H4             24.2033553748      -14.2331649967      -20.3330604766  BUTA      124             0.0000000000
      5792       259  BUTA      H5             24.2398846469      -13.4149092417      -21.9321966241  BUTA      124             0.0000000000
      5793       259  BUTA      H6             23.3200142922      -15.6442891145      -22.1830732747  BUTA      124             0.0000000000
      5794       259  BUTA      H7             22.0900991452      -14.4363129983      -22.5456243376  BUTA      124             0.0000000000
      5795       259  BUTA      H8             20.2370876041      -14.8671336435      -21.5751193220  BUTA      124             0.0000000000
      5796       259  BUTA      H9             21.8320973203      -16.5802745474      -19.1169625540  BUTA      124             0.0000000000
      5797       259  BUTA      LPO11          22.7493582229      -16.1521004308      -19.8423523370  BUTA      124             0.0000000000
      5798       259  BUTA      LPO12          22.1794712089      -16.3162458133      -19.5578071328  BUTA      124             0.0000000000
      5799       259  BUTA      LPO21          20.4373084807      -15.1685937779      -21.0700127165  BUTA      124             0.0000000000
      5800       259  BUTA      LPO22          20.3447347540      -15.5363389109      -20.5325422421  BUTA      124             0.0000000000
      5801       260  BUTA      C1             19.9481555330        4.8849636592      -17.1263261444  BUTA      125             0.0000000000
      5802       260  BUTA      DC1            19.9218134908        4.8819526031      -17.1235520444  BUTA      125             0.0000000000
      5803       260  BUTA      C2             19.0552772225        3.7161664905      -16.7330855725  BUTA      125             0.0000000000
      5804       260  BUTA      DC2            19.1001997233        3.6604872059      -16.7391987045  BUTA      125             0.0000000000
      5805       260  BUTA      C3             17.5598260383        4.0059723748      -16.9524506257  BUTA      125             0.0000000000
      5806       260  BUTA      DC3            17.5713327467        4.0090626446      -16.9329595849  BUTA      125             0.0000000000
      5807       260  BUTA      C4             16.9752746000        5.2015476896      -16.2633225811  BUTA      125             0.0000000000
      5808       260  BUTA      DC4            16.9914459065        5.1602139349      -16.1871636832  BUTA      125             0.0000000000
      5809       260  BUTA      O1             16.9511089314        5.1197322122      -14.9887930665  BUTA      125             0.0000000000
      5810       260  BUTA      DO1            16.9544049547        5.0991241648      -14.9255564838  BUTA      125             0.0000000000
      5811       260  BUTA      O2             16.4117536531        6.0371186364      -17.0265621498  BUTA      125             0.0000000000
      5812       260  BUTA      DO2            16.4462409419        5.9714087480      -16.9979795298  BUTA      125             0.0000000000
      5813       260  BUTA      H1             19.8767372999        5.0821687555      -18.2173488699  BUTA      125             0.0000000000
      5814       260  BUTA      H2             19.6378262730        5.8085226954      -16.5924202935  BUTA      125             0.0000000000
      5815       260  BUTA      H3             21.0126569404        4.6839293683      -16.8798652603  BUTA      125             0.0000000000
      5816       260  BUTA      H4             19.2197755061        3.5024363994      -15.6553190102  BUTA      125             0.0000000000
      5817       260  BUTA      H5             19.3510173046        2.8064710495      -17.2981634512  BUTA      125             0.0000000000
      5818       260  BUTA      H6             17.0190524811        3.0818909648      -16.6558726278  BUTA      125             0.0000000000
      5819       260  BUTA      H7             17.4233002424        4.0641094572      -18.0534963953  BUTA      125             0.0000000000
      5820       260  BUTA      H8             16.5147014998        5.8511682476      -17.9719642832  BUTA      125             0.0000000000
      5821       260  BUTA      H9             16.5270032894        5.8758639482      -14.5559418192  BUTA      125             0.0000000000
      5822       260  BUTA      LPO11          17.0870103807        4.8140587235      -14.8858634092  BUTA      125             0.0000000000
      5823       260  BUTA      LPO12          16.8106782147        5.4100713780      -14.8528431395  BUTA      125             0.0000000000
      5824       260  BUTA      LPO21          16.4314670265        5.9282292389      -17.3586080533  BUTA      125             0.0000000000
      5825       260  BUTA      LPO22          16.2853229845        6.3042450470      -16.8390554384  BUTA      125             0.0000000000
      5826       261  BUTA      C1              4.0139756617       -6.5285506747       28.2434055339  BUTA      126             0.0000000000
      5827       261  BUTA      DC1             4.0070639184       -6.5252533749       28.2631773601  BUTA      126             0.0000000000
      5828       261  BUTA      C2              4.4624024214       -6.1908280531       26.8235584391  BUTA      126             0.0000000000
      5829       261  BUTA      DC2             4.3868302601       -6.1273105197       26.8356667842  BUTA      126             0.0000000000
      5830       261  BUTA      C3              5.1706243586       -7.3789677501       26.1491436617  BUTA      126             0.0000000000
      5831       261  BUTA      DC3             5.1740430294       -7.3496820234       26.1995340999  BUTA      126             0.0000000000
      5832       261  BUTA      C4              6.4045791036       -7.8429631053       26.8583807705  BUTA      126             0.0000000000
      5833       261  BUTA      DC4             6.4197644626       -7.8022840817       26.8504168179  BUTA      126             0.0000000000
      5834       261  BUTA      O1              7.3160882533       -6.9561468239       26.9915147060  BUTA      126             0.0000000000
      5835       261  BUTA      DO1             7.3358127820       -6.9417607914       26.9880468576  BUTA      126             0.0000000000
      5836       261  BUTA      O2              6.4035128167       -9.0406644469       27.2838041390  BUTA      126             0.0000000000
      5837       261  BUTA      DO2             6.3997803037       -9.0047596392       27.2691806343  BUTA      126             0.0000000000
      5838       261  BUTA      H1              3.3038451601       -7.3828466302       28.2287736431  BUTA      126             0.0000000000
      5839       261  BUTA      H2              4.8903369972       -6.8426453666       28.8497522449  BUTA      126             0.0000000000
      5840       261  BUTA      H3              3.5271058740       -5.6614278180       28.7387607187  BUTA      126             0.0000000000
      5841       261  BUTA      H4              5.1730251793       -5.3372037617       26.8492851935  BUTA      126             0.0000000000
      5842       261  BUTA      H5              3.5891443504       -5.8934116501       26.2044584274  BUTA      126             0.0000000000
      5843       261  BUTA      H6              5.3928924574       -7.0715217057       25.1049239425  BUTA      126             0.0000000000
      5844       261  BUTA      H7              4.4086667846       -8.1809099425       26.0460399476  BUTA      126             0.0000000000
      5845       261  BUTA      H8              5.5937702674       -9.5347859625       27.0860114907  BUTA      126             0.0000000000
      5846       261  BUTA      H9              8.1237374977       -7.2845886175       27.4143500006  BUTA      126             0.0000000000
      5847       261  BUTA      LPO11           7.2115124826       -6.6545179734       26.8480436473  BUTA      126             0.0000000000
      5848       261  BUTA      LPO12           7.5913310662       -7.0917320185       27.1599131887  BUTA      126             0.0000000000
      5849       261  BUTA      LPO21           6.0997008726       -9.1954713979       27.2048540880  BUTA      126             0.0000000000
      5850       261  BUTA      LPO22           6.7071239099       -9.1114622164       27.4428889589  BUTA      126             0.0000000000
      5851       262  BUTA      C1            -13.0915060235       -8.6153653604       22.8336334651  BUTA      127             0.0000000000
      5852       262  BUTA      DC1           -13.0867712900       -8.6078467016       22.8286585508  BUTA      127             0.0000000000
      5853       262  BUTA      C2            -12.9645408837       -7.1545612112       22.4273900583  BUTA      127             0.0000000000
      5854       262  BUTA      DC2           -13.0347538475       -7.1624562339       22.3680085344  BUTA      127             0.0000000000
      5855       262  BUTA      C3            -11.5128950980       -6.7114437760       22.1561047682  BUTA      127             0.0000000000
      5856       262  BUTA      DC3           -11.5255444166       -6.7355984658       22.1893018034  BUTA      127             0.0000000000
      5857       262  BUTA      C4            -10.4924142398       -6.8602397736       23.2522408339  BUTA      127             0.0000000000
      5858       262  BUTA      DC4           -10.4888412172       -6.8613777365       23.2736494587  BUTA      127             0.0000000000
      5859       262  BUTA      O1            -10.4931455873       -5.9740012762       24.1780255103  BUTA      127             0.0000000000
      5860       262  BUTA      DO1           -10.4692140790       -5.9716592993       24.1901527882  BUTA      127             0.0000000000
      5861       262  BUTA      O2             -9.5983651726       -7.7569167455       23.0726637500  BUTA      127             0.0000000000
      5862       262  BUTA      DO2            -9.5766987952       -7.7409607795       23.0968351481  BUTA      127             0.0000000000
      5863       262  BUTA      H1            -12.7602494037       -9.2864490852       22.0125142988  BUTA      127             0.0000000000
      5864       262  BUTA      H2            -12.4498419180       -8.8292610796       23.7150169222  BUTA      127             0.0000000000
      5865       262  BUTA      H3            -14.1411160238       -8.8686611911       23.0953223465  BUTA      127             0.0000000000
      5866       262  BUTA      H4            -13.3771931087       -6.5049850755       23.2286952359  BUTA      127             0.0000000000
      5867       262  BUTA      H5            -13.5772291641       -7.0027645235       21.5131188531  BUTA      127             0.0000000000
      5868       262  BUTA      H6            -11.5864561227       -5.6461708632       21.8493419974  BUTA      127             0.0000000000
      5869       262  BUTA      H7            -11.2005344198       -7.2489803323       21.2353408151  BUTA      127             0.0000000000
      5870       262  BUTA      H8             -9.6827504210       -8.2415470339       22.2378142945  BUTA      127             0.0000000000
      5871       262  BUTA      H9             -9.8329401064       -6.1175520507       24.8726353995  BUTA      127             0.0000000000
      5872       262  BUTA      LPO11         -10.7440847927       -5.7376866126       24.1173221746  BUTA      127             0.0000000000
      5873       262  BUTA      LPO12         -10.2423430041       -6.0447587246       24.4116736384  BUTA      127             0.0000000000
      5874       262  BUTA      LPO21          -9.6501712901       -7.9179413572       22.7662535664  BUTA      127             0.0000000000
      5875       262  BUTA      LPO22          -9.3791910802       -7.7637520584       23.3454567039  BUTA      127             0.0000000000
      5876       263  BUTA      C1              5.6828104608      -22.3574777351       22.0340688214  BUTA      128             0.0000000000
      5877       263  BUTA      DC1             5.7492466195      -22.3580053086       22.0445243546  BUTA      128             0.0000000000
      5878       263  BUTA      C2              4.2936697553      -22.6731878440       21.5300543640  BUTA      128             0.0000000000
      5879       263  BUTA      DC2             4.3323540243      -22.5559173847       21.5139253868  BUTA      128             0.0000000000
      5880       263  BUTA      C3              3.6752554731      -23.8645877254       22.2942822948  BUTA      128             0.0000000000
      5881       263  BUTA      DC3             3.7700318861      -23.8444250855       22.2464822913  BUTA      128             0.0000000000
      5882       263  BUTA      C4              4.4265194820      -25.1624042648       22.1415799331  BUTA      128             0.0000000000
      5883       263  BUTA      DC4             4.4481349089      -25.1668893042       22.1339186928  BUTA      128             0.0000000000
      5884       263  BUTA      O1              4.6963240739      -25.4669774729       20.9286000167  BUTA      128             0.0000000000
      5885       263  BUTA      DO1             4.7150693716      -25.4683483580       20.9225951830  BUTA      128             0.0000000000
      5886       263  BUTA      O2              5.0313327778      -25.6011517125       23.1834569501  BUTA      128             0.0000000000
      5887       263  BUTA      DO2             5.0507877723      -25.6015599560       23.1861653006  BUTA      128             0.0000000000
      5888       263  BUTA      H1              5.6119199497      -22.1602479884       23.1251215069  BUTA      128             0.0000000000
      5889       263  BUTA      H2              6.3086750013      -23.2592496816       21.8625405882  BUTA      128             0.0000000000
      5890       263  BUTA      H3              6.1465730987      -21.4801004528       21.5346147989  BUTA      128             0.0000000000
      5891       263  BUTA      H4              4.3395720788      -22.9153778413       20.4467455521  BUTA      128             0.0000000000
      5892       263  BUTA      H5              3.6328145493      -21.7889721347       21.6555692122  BUTA      128             0.0000000000
      5893       263  BUTA      H6              2.6167219469      -23.9654547005       21.9723294588  BUTA      128             0.0000000000
      5894       263  BUTA      H7              3.5825037667      -23.5375827862       23.3520090510  BUTA      128             0.0000000000
      5895       263  BUTA      H8              4.7821612783      -25.1440600096       24.0007339771  BUTA      128             0.0000000000
      5896       263  BUTA      H9              5.1495623081      -26.3170233675       20.8239191686  BUTA      128             0.0000000000
      5897       263  BUTA      LPO11           4.5730107261      -25.2203874050       20.7129912119  BUTA      128             0.0000000000
      5898       263  BUTA      LPO12           4.8701257147      -25.7705620540       20.9172249693  BUTA      128             0.0000000000
      5899       263  BUTA      LPO21           4.9821314503      -25.3817845701       23.4517055031  BUTA      128             0.0000000000
      5900       263  BUTA      LPO22           5.1934735770      -25.9024481137       23.1097627178  BUTA      128             0.0000000000
      5901       264  BUTA      C1            -28.0392372897        6.7955658693       22.7285918764  BUTA      129             0.0000000000
      5902       264  BUTA      DC1           -28.0194892302        6.7691795937       22.7211363463  BUTA      129             0.0000000000
      5903       264  BUTA      C2            -28.9604183004        5.9109410818       23.5583312515  BUTA      129             0.0000000000
      5904       264  BUTA      DC2           -28.9541794291        5.9552704802       23.5768542178  BUTA      129             0.0000000000
      5905       264  BUTA      C3            -28.5105464029        4.4233561175       23.6375476861  BUTA      129             0.0000000000
      5906       264  BUTA      DC3           -28.4873404386        4.4048016086       23.5824862241  BUTA      129             0.0000000000
      5907       264  BUTA      C4            -28.3402032497        3.5762175960       22.3818291821  BUTA      129             0.0000000000
      5908       264  BUTA      DC4           -28.3455944506        3.5466049290       22.3517387362  BUTA      129             0.0000000000
      5909       264  BUTA      O1            -29.4001786719        3.1746136758       21.7819091410  BUTA      129             0.0000000000
      5910       264  BUTA      DO1           -29.4072954345        3.1427377852       21.7633621030  BUTA      129             0.0000000000
      5911       264  BUTA      O2            -27.1665794506        3.1049548390       22.1709190342  BUTA      129             0.0000000000
      5912       264  BUTA      DO2           -27.1630530522        3.0843823620       22.1622455067  BUTA      129             0.0000000000
      5913       264  BUTA      H1            -27.0178056508        6.8262896189       23.1645442351  BUTA      129             0.0000000000
      5914       264  BUTA      H2            -27.9821072011        6.4093521224       21.6884495329  BUTA      129             0.0000000000
      5915       264  BUTA      H3            -28.4158916088        7.8395573689       22.6782502985  BUTA      129             0.0000000000
      5916       264  BUTA      H4            -29.9856019367        5.9438727820       23.1314413163  BUTA      129             0.0000000000
      5917       264  BUTA      H5            -29.0321669181        6.3209232688       24.5884223845  BUTA      129             0.0000000000
      5918       264  BUTA      H6            -29.2619424357        3.9662046034       24.3163241565  BUTA      129             0.0000000000
      5919       264  BUTA      H7            -27.5811670676        4.4590603899       24.2452484809  BUTA      129             0.0000000000
      5920       264  BUTA      H8            -26.4982415543        3.4103528749       22.8025973512  BUTA      129             0.0000000000
      5921       264  BUTA      H9            -29.2355499171        2.6670453867       20.9730625518  BUTA      129             0.0000000000
      5922       264  BUTA      LPO11         -29.6842574770        3.2894429931       21.9510642780  BUTA      129             0.0000000000
      5923       264  BUTA      LPO12         -29.3139777252        2.9848123148       21.5007599988  BUTA      129             0.0000000000
      5924       264  BUTA      LPO21         -26.9496129278        3.2051563382       22.4266243089  BUTA      129             0.0000000000
      5925       264  BUTA      LPO22         -27.1644005452        2.9167565910       21.8758314679  BUTA      129             0.0000000000
      5926       265  BUTA      C1            -25.0361312193       11.4830506383       20.6376676253  BUTA      130             0.0000000000
      5927       265  BUTA      DC1           -25.0383835409       11.4515759899       20.6396551340  BUTA      130             0.0000000000
      5928       265  BUTA      C2            -25.3153937198       12.9772565563       20.8077760669  BUTA      130             0.0000000000
      5929       265  BUTA      DC2           -25.4364343352       12.9323418446       20.8183399175  BUTA      130             0.0000000000
      5930       265  BUTA      C3            -24.2622466589       13.8563521054       20.1078354553  BUTA      130             0.0000000000
      5931       265  BUTA      DC3           -24.3014288219       13.7864353239       20.1471195633  BUTA      130             0.0000000000
      5932       265  BUTA      C4            -22.8566625930       13.6776031398       20.6137512677  BUTA      130             0.0000000000
      5933       265  BUTA      DC4           -22.8870584695       13.6667349993       20.6366479252  BUTA      130             0.0000000000
      5934       265  BUTA      O1            -22.7607647927       13.7911705339       21.8868129803  BUTA      130             0.0000000000
      5935       265  BUTA      DO1           -22.7705397932       13.7860322709       21.9037639450  BUTA      130             0.0000000000
      5936       265  BUTA      O2            -22.0877956855       13.0428772479       19.8149035222  BUTA      130             0.0000000000
      5937       265  BUTA      DO2           -22.1096681094       13.0458402687       19.8249773363  BUTA      130             0.0000000000
      5938       265  BUTA      H1            -25.0473301368       11.2100910371       19.5607792192  BUTA      130             0.0000000000
      5939       265  BUTA      H2            -24.0185805236       11.2514184396       21.0187950400  BUTA      130             0.0000000000
      5940       265  BUTA      H3            -25.7776286829       10.8568360873       21.1783688794  BUTA      130             0.0000000000
      5941       265  BUTA      H4            -25.3087422750       13.2321738965       21.8891150102  BUTA      130             0.0000000000
      5942       265  BUTA      H5            -26.3210125627       13.2197340287       20.4024904658  BUTA      130             0.0000000000
      5943       265  BUTA      H6            -24.5751286043       14.9188069538       20.1951027671  BUTA      130             0.0000000000
      5944       265  BUTA      H7            -24.3472470824       13.6296372113       19.0235401612  BUTA      130             0.0000000000
      5945       265  BUTA      H8            -22.4706116885       12.8782784295       18.9400777471  BUTA      130             0.0000000000
      5946       265  BUTA      H9            -21.8567004288       13.7006069257       22.2236020225  BUTA      130             0.0000000000
      5947       265  BUTA      LPO11         -23.0754887918       13.8567476525       22.0251908899  BUTA      130             0.0000000000
      5948       265  BUTA      LPO12         -22.4281277798       13.7468069810       21.9862337670  BUTA      130             0.0000000000
      5949       265  BUTA      LPO21         -22.2635655066       12.9525975127       19.5260185289  BUTA      130             0.0000000000
      5950       265  BUTA      LPO22         -21.7679419812       13.0142108166       19.9540862927  BUTA      130             0.0000000000
      5951       266  BUTA      C1             23.9162518960       -4.7232510231      -16.5810492472  BUTA      131             0.0000000000
      5952       266  BUTA      DC1            23.9180276223       -4.7398165423      -16.5548544360  BUTA      131             0.0000000000
      5953       266  BUTA      C2             23.5429837070       -5.9844741592      -15.8387661420  BUTA      131             0.0000000000
      5954       266  BUTA      DC2            23.4636285747       -5.9464989600      -15.7895050210  BUTA      131             0.0000000000
      5955       266  BUTA      C3             24.7936466515       -6.6318992139      -15.2309752316  BUTA      131             0.0000000000
      5956       266  BUTA      DC3            24.7954837603       -6.6360598506      -15.2379301535  BUTA      131             0.0000000000
      5957       266  BUTA      C4             25.8960143881       -7.0265582664      -16.1637743143  BUTA      131             0.0000000000
      5958       266  BUTA      DC4            25.9044765891       -7.0273843176      -16.1387949389  BUTA      131             0.0000000000
      5959       266  BUTA      O1             25.5898514537       -8.0466350663      -16.8592928003  BUTA      131             0.0000000000
      5960       266  BUTA      DO1            25.6098078661       -8.0444465553      -16.8141189917  BUTA      131             0.0000000000
      5961       266  BUTA      O2             27.0681479024       -6.7329853738      -15.7356836573  BUTA      131             0.0000000000
      5962       266  BUTA      DO2            27.0717285248       -6.7762695320      -15.7115817987  BUTA      131             0.0000000000
      5963       266  BUTA      H1             24.5672693345       -4.0495440485      -15.9838757309  BUTA      131             0.0000000000
      5964       266  BUTA      H2             24.4981466953       -5.0338663773      -17.4750501111  BUTA      131             0.0000000000
      5965       266  BUTA      H3             23.0374323518       -4.1480018652      -16.9431067220  BUTA      131             0.0000000000
      5966       266  BUTA      H4             23.0924099498       -6.7086185883      -16.5507486820  BUTA      131             0.0000000000
      5967       266  BUTA      H5             22.7747752429       -5.7596459833      -15.0682928798  BUTA      131             0.0000000000
      5968       266  BUTA      H6             24.4087682033       -7.4953120649      -14.6472733994  BUTA      131             0.0000000000
      5969       266  BUTA      H7             25.2027368886       -5.9254304697      -14.4774050016  BUTA      131             0.0000000000
      5970       266  BUTA      H8             27.0818940771       -6.1333995623      -14.9745864905  BUTA      131             0.0000000000
      5971       266  BUTA      H9             26.3118754431       -8.3933021032      -17.4046957012  BUTA      131             0.0000000000
      5972       266  BUTA      LPO11          25.2677911374       -8.1557573887      -16.7764105257  BUTA      131             0.0000000000
      5973       266  BUTA      LPO12          25.8542871697       -8.1295069774      -17.0730824129  BUTA      131             0.0000000000
      5974       266  BUTA      LPO21          27.0458852729       -6.5773993377      -15.4229579617  BUTA      131             0.0000000000
      5975       266  BUTA      LPO22          27.3093190271       -6.8337435260      -15.9684588351  BUTA      131             0.0000000000
      5976       267  BUTA      C1             29.0850190591       15.7644078975       11.3548943552  BUTA      132             0.0000000000
      5977       267  BUTA      DC1            29.0474802663       15.7705311981       11.3729780365  BUTA      132             0.0000000000
      5978       267  BUTA      C2             27.8539916762       14.9598136553       11.7600503336  BUTA      132             0.0000000000
      5979       267  BUTA      DC2            27.7849960309       14.9905246048       11.6919901703  BUTA      132             0.0000000000
      5980       267  BUTA      C3             27.7788844592       14.7370948555       13.2794506509  BUTA      132             0.0000000000
      5981       267  BUTA      DC3            27.7696514450       14.7484581386       13.2568340586  BUTA      132             0.0000000000
      5982       267  BUTA      C4             28.9543980302       14.0611828182       13.9111682278  BUTA      132             0.0000000000
      5983       267  BUTA      DC4            28.9276367302       14.0733993099       13.8958399299  BUTA      132             0.0000000000
      5984       267  BUTA      O1             29.0251344484       12.8160644314       13.6563838794  BUTA      132             0.0000000000
      5985       267  BUTA      DO1            29.0027282090       12.8362490424       13.6577738217  BUTA      132             0.0000000000
      5986       267  BUTA      O2             29.5061890171       14.7308455275       14.8419716120  BUTA      132             0.0000000000
      5987       267  BUTA      DO2            29.4738566173       14.7300190818       14.8333231806  BUTA      132             0.0000000000
      5988       267  BUTA      H1             29.0894972712       16.7675441272       11.8324073395  BUTA      132             0.0000000000
      5989       267  BUTA      H2             30.0092170477       15.2425021389       11.6832134940  BUTA      132             0.0000000000
      5990       267  BUTA      H3             29.1503827646       15.8879561298       10.2527217640  BUTA      132             0.0000000000
      5991       267  BUTA      H4             27.9215154198       13.9650175686       11.2700071829  BUTA      132             0.0000000000
      5992       267  BUTA      H5             26.9271486452       15.4608038058       11.4074998195  BUTA      132             0.0000000000
      5993       267  BUTA      H6             26.8682389153       14.1266291360       13.4593875827  BUTA      132             0.0000000000
      5994       267  BUTA      H7             27.5642753818       15.7306772718       13.7278454834  BUTA      132             0.0000000000
      5995       267  BUTA      H8             29.1686115916       15.6330045665       14.9473829494  BUTA      132             0.0000000000
      5996       267  BUTA      H9             29.7758142085       12.3621791146       14.0680014410  BUTA      132             0.0000000000
      5997       267  BUTA      LPO11          28.7576478863       12.7203195310       13.4519728886  BUTA      132             0.0000000000
      5998       267  BUTA      LPO12          29.3059256563       12.6776179565       13.8128730841  BUTA      132             0.0000000000
      5999       267  BUTA      LPO21          29.3389328236       15.0351483934       14.8858479329  BUTA      132             0.0000000000
      6000       267  BUTA      LPO22          29.7772598197       14.5525337959       14.9732177410  BUTA      132             0.0000000000
      6001       268  BUTA      C1            -18.5418773827       14.5668834265        7.9855456988  BUTA      133             0.0000000000
      6002       268  BUTA      DC1           -18.5439615655       14.5756873200        7.9868028201  BUTA      133             0.0000000000
      6003       268  BUTA      C2            -17.1489783195       15.1390174730        7.7428742166  BUTA      133             0.0000000000
      6004       268  BUTA      DC2           -17.1134646656       15.0735217873        7.7841110245  BUTA      133             0.0000000000
      6005       268  BUTA      C3            -17.1366181215       16.6775045397        7.7185285329  BUTA      133             0.0000000000
      6006       268  BUTA      DC3           -17.1581525424       16.6544398846        7.7027682453  BUTA      133             0.0000000000
      6007       268  BUTA      C4            -18.0366221828       17.3064398377        6.7058850405  BUTA      133             0.0000000000
      6008       268  BUTA      DC4           -18.0375409113       17.3066783799        6.7084110748  BUTA      133             0.0000000000
      6009       268  BUTA      O1            -17.6703259216       17.1770293503        5.4910420018  BUTA      133             0.0000000000
      6010       268  BUTA      DO1           -17.6629819894       17.1778201988        5.5008073281  BUTA      133             0.0000000000
      6011       268  BUTA      O2            -18.9709639951       18.0310092960        7.1810672212  BUTA      133             0.0000000000
      6012       268  BUTA      DO2           -18.9611140838       18.0472829633        7.1826302615  BUTA      133             0.0000000000
      6013       268  BUTA      H1            -18.9469237911       14.9273001325        8.9552663823  BUTA      133             0.0000000000
      6014       268  BUTA      H2            -19.2409956755       14.8994974086        7.1887254231  BUTA      133             0.0000000000
      6015       268  BUTA      H3            -18.5246894118       13.4561124472        8.0001541534  BUTA      133             0.0000000000
      6016       268  BUTA      H4            -16.7626291656       14.7664146163        6.7701345579  BUTA      133             0.0000000000
      6017       268  BUTA      H5            -16.4676609374       14.7813012392        8.5442272730  BUTA      133             0.0000000000
      6018       268  BUTA      H6            -16.0818543824       16.9885421535        7.5602564314  BUTA      133             0.0000000000
      6019       268  BUTA      H7            -17.3728977538       17.0027035217        8.7542594620  BUTA      133             0.0000000000
      6020       268  BUTA      H8            -19.0145448038       18.0450591625        8.1489847355  BUTA      133             0.0000000000
      6021       268  BUTA      H9            -18.2628171480       17.5914205849        4.8459101925  BUTA      133             0.0000000000
      6022       268  BUTA      LPO11         -17.3714617291       16.9956003631        5.4748026351  BUTA      133             0.0000000000
      6023       268  BUTA      LPO12         -17.9004326291       17.3341666900        5.2792431359  BUTA      133             0.0000000000
      6024       268  BUTA      LPO21         -18.9537553095       18.0344801323        7.5306266789  BUTA      133             0.0000000000
      6025       268  BUTA      LPO22         -19.1637183390       18.1636717471        6.9207857640  BUTA      133             0.0000000000
      6026       269  BUTA      C1              3.9747769087       23.8388024467       -5.9507027680  BUTA      134             0.0000000000
      6027       269  BUTA      DC1             3.9845375893       23.8334190920       -5.9705549699  BUTA      134             0.0000000000
      6028       269  BUTA      C2              2.6454103995       23.1071202147       -6.1207577157  BUTA      134             0.0000000000
      6029       269  BUTA      DC2             2.7123214368       23.0039604851       -6.1433325237  BUTA      134             0.0000000000
      6030       269  BUTA      C3              1.5730461336       23.9202606605       -6.8720821457  BUTA      134             0.0000000000
      6031       269  BUTA      DC3             1.6256524956       23.9041298468       -6.8681998924  BUTA      134             0.0000000000
      6032       269  BUTA      C4              1.2938550379       25.2713058589       -6.3031087620  BUTA      134             0.0000000000
      6033       269  BUTA      DC4             1.3176734933       25.2618208719       -6.3559928377  BUTA      134             0.0000000000
      6034       269  BUTA      O1              0.8690068411       25.2652617747       -5.1128640564  BUTA      134             0.0000000000
      6035       269  BUTA      DO1             0.8932885952       25.2536562586       -5.1770455461  BUTA      134             0.0000000000
      6036       269  BUTA      O2              1.5767685285       26.2541747639       -7.0660639077  BUTA      134             0.0000000000
      6037       269  BUTA      DO2             1.5836016106       26.2631361855       -7.0825640488  BUTA      134             0.0000000000
      6038       269  BUTA      H1              4.5097876550       23.9365637403       -6.9194789191  BUTA      134             0.0000000000
      6039       269  BUTA      H2              3.7995311175       24.8613445897       -5.5531886431  BUTA      134             0.0000000000
      6040       269  BUTA      H3              4.6506870039       23.3078858060       -5.2467183476  BUTA      134             0.0000000000
      6041       269  BUTA      H4              2.2378737872       22.8977071378       -5.1086405913  BUTA      134             0.0000000000
      6042       269  BUTA      H5              2.8041523939       22.1380455938       -6.6403886987  BUTA      134             0.0000000000
      6043       269  BUTA      H6              0.6492487791       23.3031563833       -6.8619944924  BUTA      134             0.0000000000
      6044       269  BUTA      H7              1.8838111964       23.9688849552       -7.9376250842  BUTA      134             0.0000000000
      6045       269  BUTA      H8              1.8944381548       26.0032607639       -7.9464553962  BUTA      134             0.0000000000
      6046       269  BUTA      H9              0.6637348968       26.1377493888       -4.7446388643  BUTA      134             0.0000000000
      6047       269  BUTA      LPO11           0.8456663401       24.9362603966       -4.9957601955  BUTA      134             0.0000000000
      6048       269  BUTA      LPO12           0.8118647757       25.5931181710       -5.0044898541  BUTA      134             0.0000000000
      6049       269  BUTA      LPO21           1.7059125876       26.1368791112       -7.3694836530  BUTA      134             0.0000000000
      6050       269  BUTA      LPO22           1.5007072003       26.5558849716       -6.9057965532  BUTA      134             0.0000000000
      6051       270  BUTA      C1             -0.6400822950      -19.2289672320      -10.0148555814  BUTA      135             0.0000000000
      6052       270  BUTA      DC1            -0.6279496589      -19.2092054218      -10.0107325850  BUTA      135             0.0000000000
      6053       270  BUTA      C2             -0.8242539894      -17.7061203762      -10.0058876468  BUTA      135             0.0000000000
      6054       270  BUTA      DC2            -0.8469168848      -17.6518290056      -10.1116862926  BUTA      135             0.0000000000
      6055       270  BUTA      C3              0.0518233160      -17.0445710961       -8.9405698374  BUTA      135             0.0000000000
      6056       270  BUTA      DC3             0.0380121995      -17.0888745936       -8.9726487627  BUTA      135             0.0000000000
      6057       270  BUTA      C4             -0.0331283035      -17.7120778270       -7.5894474839  BUTA      135             0.0000000000
      6058       270  BUTA      DC4            -0.0273167065      -17.7412679298       -7.6126535324  BUTA      135             0.0000000000
      6059       270  BUTA      O1             -1.2156611371      -18.0047963147       -7.1928628348  BUTA      135             0.0000000000
      6060       270  BUTA      DO1            -1.2171573800      -18.0226702519       -7.1993984821  BUTA      135             0.0000000000
      6061       270  BUTA      O2              1.0590423173      -18.3073594099       -7.2909261082  BUTA      135             0.0000000000
      6062       270  BUTA      DO2             1.0781015195      -18.3134106538       -7.2920191729  BUTA      135             0.0000000000
      6063       270  BUTA      H1              0.4363290047      -19.4794503935      -10.1285125199  BUTA      135             0.0000000000
      6064       270  BUTA      H2             -0.9542087410      -19.6794313712       -9.0490773271  BUTA      135             0.0000000000
      6065       270  BUTA      H3             -1.2149484534      -19.7292330035      -10.8233010392  BUTA      135             0.0000000000
      6066       270  BUTA      H4             -1.8750010313      -17.4663087339       -9.7361803423  BUTA      135             0.0000000000
      6067       270  BUTA      H5             -0.6165876021      -17.3048427973      -11.0208615267  BUTA      135             0.0000000000
      6068       270  BUTA      H6             -0.1972671252      -15.9643195772       -8.8675519774  BUTA      135             0.0000000000
      6069       270  BUTA      H7              1.0765590064      -17.0807554863       -9.3682711998  BUTA      135             0.0000000000
      6070       270  BUTA      H8              1.7915729459      -18.1229486152       -7.8978466441  BUTA      135             0.0000000000
      6071       270  BUTA      H9             -1.2704291810      -18.3136121443       -6.2760235660  BUTA      135             0.0000000000
      6072       270  BUTA      LPO11          -1.4502709667      -17.9068382557       -7.4334089770  BUTA      135             0.0000000000
      6073       270  BUTA      LPO12          -1.2020362470      -18.1574559223       -6.8782052327  BUTA      135             0.0000000000
      6074       270  BUTA      LPO21           1.2918064355      -18.2670491254       -7.5491816913  BUTA      135             0.0000000000
      6075       270  BUTA      LPO22           1.0306905713      -18.4590835322       -6.9767987945  BUTA      135             0.0000000000
      6076       271  IM1       C1             -4.7145459288       -0.8131256104        8.9873056728  IM1       1               0.0000000000
      6077       271  IM1       DC1            -4.7118132761       -0.8405969809        8.9802688343  IM1       1               0.0000000000
      6078       271  IM1       H1             -4.8787887166       -0.8048750420        7.8885439901  IM1       1               0.0000000000
      6079       271  IM1       H2             -5.5474884877       -1.3523427885        9.4870781494  IM1       1               0.0000000000
      6080       271  IM1       H3             -3.7324530582       -1.2845730367        9.2053696982  IM1       1               0.0000000000
      6081       271  IM1       N1             -4.6774327046        0.5253269551        9.4834937279  IM1       1               0.0000000000
      6082       271  IM1       DN1            -4.6664802057        0.5042839118        9.4812187327  IM1       1               0.0000000000
      6083       271  IM1       C2             -4.8021910377        1.6660152280        8.7242600986  IM1       1               0.0000000000
      6084       271  IM1       DC2            -4.7992819507        1.6261685366        8.7077647319  IM1       1               0.0000000000
      6085       271  IM1       H4             -5.0453784041        1.6667020227        7.6689172950  IM1       1               0.0000000000
      6086       271  IM1       C3             -4.5643449498        2.7073321357        9.5688378813  IM1       1               0.0000000000
      6087       271  IM1       DC3            -4.5543721841        2.6839863588        9.5417723955  IM1       1               0.0000000000
      6088       271  IM1       H5             -4.5831576628        3.7738874834        9.3817689823  IM1       1               0.0000000000
      6089       271  IM1       C4             -4.3707354482        0.9009266795       10.7491690907  IM1       1               0.0000000000
      6090       271  IM1       DC4            -4.3605463353        0.8807148697       10.7307435131  IM1       1               0.0000000000
      6091       271  IM1       H6             -4.2724010278        0.2067652493       11.5837769331  IM1       1               0.0000000000
      6092       271  IM1       N2             -4.2756928374        2.2235661298       10.8328246610  IM1       1               0.0000000000
      6093       271  IM1       DN2            -4.2678112149        2.2137129374       10.8146773283  IM1       1               0.0000000000
      6094       271  IM1       H7             -4.1165397121        2.7608988790       11.6610419026  IM1       1               0.0000000000
      6095       271  IM1       LPN21          -4.2052047958        2.3776205269       11.0804103607  IM1       1               0.0000000000
      6096       272  IM1       C1            -26.2653593186        1.2872726414        1.7905066222  IM1       2               0.0000000000
      6097       272  IM1       DC1           -26.2679794559        1.2716216678        1.8099791100  IM1       2               0.0000000000
      6098       272  IM1       H1            -26.8118975591        0.3212942528        1.7404795690  IM1       2               0.0000000000
      6099       272  IM1       H2            -26.9475246926        2.1089908695        1.4843194946  IM1       2               0.0000000000
      6100       272  IM1       H3            -25.8873618830        1.4593267713        2.8209610439  IM1       2               0.0000000000
      6101       272  IM1       N1            -25.1596691012        1.2700781599        0.8810368667  IM1       2               0.0000000000
      6102       272  IM1       DN1           -25.1504146444        1.2663522358        0.8997678314  IM1       2               0.0000000000
      6103       272  IM1       C2            -24.8640302566        0.2652434087       -0.0131619101  IM1       2               0.0000000000
      6104       272  IM1       DC2           -24.8268940631        0.2443759099        0.0329217604  IM1       2               0.0000000000
      6105       272  IM1       H4            -25.4902278561       -0.6055025647       -0.1633851358  IM1       2               0.0000000000
      6106       272  IM1       C3            -23.8028389543        0.7105802698       -0.7400882279  IM1       2               0.0000000000
      6107       272  IM1       DC3           -23.7786527608        0.6900399242       -0.7409049499  IM1       2               0.0000000000
      6108       272  IM1       H5            -23.2890655938        0.2498346018       -1.5747374744  IM1       2               0.0000000000
      6109       272  IM1       C4            -24.2705876116        2.2739203571        0.6816954382  IM1       2               0.0000000000
      6110       272  IM1       DC4           -24.2775198542        2.2594321115        0.6895755331  IM1       2               0.0000000000
      6111       272  IM1       H6            -24.2912535926        3.2149189307        1.2314177332  IM1       2               0.0000000000
      6112       272  IM1       N2            -23.4106823588        1.9537174613       -0.2842129243  IM1       2               0.0000000000
      6113       272  IM1       DN2           -23.4134441692        1.9418692344       -0.2815850551  IM1       2               0.0000000000
      6114       272  IM1       H7            -22.6749073148        2.5275539764       -0.6438610027  IM1       2               0.0000000000
      6115       272  IM1       LPN21         -23.1812325233        2.1228983773       -0.3776505541  IM1       2               0.0000000000
      6116       273  IM1       C1            -16.7225868983       -0.8151060548        1.4834890845  IM1       3               0.0000000000
      6117       273  IM1       DC1           -16.6886139297       -0.8380547068        1.4906017814  IM1       3               0.0000000000
      6118       273  IM1       H1            -16.4694492204        0.1893205618        1.0817808694  IM1       3               0.0000000000
      6119       273  IM1       H2            -17.1480578002       -0.6959938878        2.5028554585  IM1       3               0.0000000000
      6120       273  IM1       H3            -17.4809974118       -1.2846023237        0.8211389155  IM1       3               0.0000000000
      6121       273  IM1       N1            -15.5568470875       -1.6580648249        1.5300123710  IM1       3               0.0000000000
      6122       273  IM1       DN1           -15.5474729194       -1.6946698732        1.5457812659  IM1       3               0.0000000000
      6123       273  IM1       C2            -14.3185064400       -1.3474744078        1.0215135205  IM1       3               0.0000000000
      6124       273  IM1       DC2           -14.3405378811       -1.3705436658        1.0435049848  IM1       3               0.0000000000
      6125       273  IM1       H4            -14.0743687164       -0.3977404185        0.5618493795  IM1       3               0.0000000000
      6126       273  IM1       C3            -13.5337853249       -2.4404295453        1.2254587519  IM1       3               0.0000000000
      6127       273  IM1       DC3           -13.5411884328       -2.4782227527        1.2358216277  IM1       3               0.0000000000
      6128       273  IM1       H5            -12.4912524508       -2.5871576006        0.9715196147  IM1       3               0.0000000000
      6129       273  IM1       C4            -15.4875240015       -2.9192775269        2.0252389476  IM1       3               0.0000000000
      6130       273  IM1       DC4           -15.4927323508       -2.9372732448        2.0285991985  IM1       3               0.0000000000
      6131       273  IM1       H6            -16.3383588688       -3.4255100024        2.4812090246  IM1       3               0.0000000000
      6132       273  IM1       N2            -14.2721557953       -3.4407878629        1.8408147288  IM1       3               0.0000000000
      6133       273  IM1       DN2           -14.2748907180       -3.4699406545        1.8418305739  IM1       3               0.0000000000
      6134       273  IM1       H7            -13.9551517512       -4.3505105645        2.1089808009  IM1       3               0.0000000000
      6135       273  IM1       LPN21         -14.1855851414       -3.7171553441        1.9190869283  IM1       3               0.0000000000
      6136       274  IM1       C1            -14.6365184904        0.6642971192       19.1465244916  IM1       4               0.0000000000
      6137       274  IM1       DC1           -14.6466427915        0.6461267090       19.1607814121  IM1       4               0.0000000000
      6138       274  IM1       H1            -15.3344837409       -0.1515970906       18.8610737124  IM1       4               0.0000000000
      6139       274  IM1       H2            -14.2004717265        1.1278738069       18.2358758904  IM1       4               0.0000000000
      6140       274  IM1       H3            -15.1909118904        1.4489606317       19.7044421662  IM1       4               0.0000000000
      6141       274  IM1       N1            -13.5592867038        0.1570653662       19.9438512538  IM1       4               0.0000000000
      6142       274  IM1       DN1           -13.5494073319        0.1563688806       19.9452941463  IM1       4               0.0000000000
      6143       274  IM1       C2            -13.3588170703       -1.1636323281       20.2845682393  IM1       4               0.0000000000
      6144       274  IM1       DC2           -13.3634767266       -1.1632035010       20.2624105309  IM1       4               0.0000000000
      6145       274  IM1       H4            -14.0265326570       -1.9656968633       19.9951941248  IM1       4               0.0000000000
      6146       274  IM1       C3            -12.2263835294       -1.1843189685       21.0393731206  IM1       4               0.0000000000
      6147       274  IM1       DC3           -12.2231492623       -1.1878493048       21.0386775700  IM1       4               0.0000000000
      6148       274  IM1       H5            -11.7184532984       -2.0207964421       21.5032710797  IM1       4               0.0000000000
      6149       274  IM1       C4            -12.5566302253        0.8872616305       20.4980334416  IM1       4               0.0000000000
      6150       274  IM1       DC4           -12.5704351671        0.8809284717       20.5053222934  IM1       4               0.0000000000
      6151       274  IM1       H6            -12.4523800380        1.9639994285       20.3643636512  IM1       4               0.0000000000
      6152       274  IM1       N2            -11.7308093846        0.1013535944       21.1870450062  IM1       4               0.0000000000
      6153       274  IM1       DN2           -11.7330425269        0.1002880889       21.1973107399  IM1       4               0.0000000000
      6154       274  IM1       H7            -10.9048649009        0.3820627816       21.6759397415  IM1       4               0.0000000000
      6155       274  IM1       LPN21         -11.4893825908        0.1927166998       21.3399040467  IM1       4               0.0000000000
      6156       275  IM1       C1             -2.7654755804      -22.9713675093       10.0363786815  IM1       5               0.0000000000
      6157       275  IM1       DC1            -2.7849605223      -22.9166138862       10.0513867456  IM1       5               0.0000000000
      6158       275  IM1       H1             -3.4793182602      -23.7541748835       10.3709862785  IM1       5               0.0000000000
      6159       275  IM1       H2             -1.8200282779      -23.0787831857       10.6098874178  IM1       5               0.0000000000
      6160       275  IM1       H3             -2.5616709421      -23.1105175041        8.9531326570  IM1       5               0.0000000000
      6161       275  IM1       N1             -3.3131441506      -21.6647240381       10.2554897172  IM1       5               0.0000000000
      6162       275  IM1       DN1            -3.3235804374      -21.6124113381       10.2487610248  IM1       5               0.0000000000
      6163       275  IM1       C2             -4.6286771177      -21.3633074601       10.5472465283  IM1       5               0.0000000000
      6164       275  IM1       DC2            -4.6210843726      -21.3332426263       10.5350503135  IM1       5               0.0000000000
      6165       275  IM1       H4             -5.3637047980      -22.1153004018       10.8063409602  IM1       5               0.0000000000
      6166       275  IM1       C3             -4.7140680553      -20.0065924559       10.5588571917  IM1       5               0.0000000000
      6167       275  IM1       DC3            -4.7058960116      -19.9681707246       10.5405550149  IM1       5               0.0000000000
      6168       275  IM1       H5             -5.5472949474      -19.3643416210       10.8160260303  IM1       5               0.0000000000
      6169       275  IM1       C4             -2.6542191256      -20.4936999734       10.0837025265  IM1       5               0.0000000000
      6170       275  IM1       DC4            -2.6561289880      -20.4734231539       10.0646488688  IM1       5               0.0000000000
      6171       275  IM1       H6             -1.5966982904      -20.4342997500        9.8263675373  IM1       5               0.0000000000
      6172       275  IM1       N2             -3.4827808765      -19.4589297177       10.2368926094  IM1       5               0.0000000000
      6173       275  IM1       DN2            -3.4813509963      -19.4362775956       10.2003115232  IM1       5               0.0000000000
      6174       275  IM1       H7             -3.2458888979      -18.4890379584       10.1803933557  IM1       5               0.0000000000
      6175       275  IM1       LPN21          -3.4091329947      -19.1697516469       10.2060375792  IM1       5               0.0000000000
      6176       276  IM1       C1             12.2197091104      -21.8118111127        8.7081971332  IM1       6               0.0000000000
      6177       276  IM1       DC1            12.2031659294      -21.7967769680        8.7305831149  IM1       6               0.0000000000
      6178       276  IM1       H1             11.1969176782      -22.2424632467        8.6556859220  IM1       6               0.0000000000
      6179       276  IM1       H2             12.5185684468      -21.4882169004        7.6882506232  IM1       6               0.0000000000
      6180       276  IM1       H3             12.2443443162      -20.9575279680        9.4180664277  IM1       6               0.0000000000
      6181       276  IM1       N1             13.1421888061      -22.8142806285        9.1524130200  IM1       6               0.0000000000
      6182       276  IM1       DN1            13.1621959138      -22.7872154119        9.1743034833  IM1       6               0.0000000000
      6183       276  IM1       C2             12.8104052917      -24.0644239261        9.6195864241  IM1       6               0.0000000000
      6184       276  IM1       DC2            12.8245802960      -24.0348618721        9.6506951300  IM1       6               0.0000000000
      6185       276  IM1       H4             11.8137462219      -24.4815620297        9.5450511903  IM1       6               0.0000000000
      6186       276  IM1       C3             13.9845591467      -24.6503350933        9.9836598746  IM1       6               0.0000000000
      6187       276  IM1       DC3            14.0123117498      -24.6372980566       10.0046030123  IM1       6               0.0000000000
      6188       276  IM1       H5             14.1698256106      -25.6563027699       10.3394609017  IM1       6               0.0000000000
      6189       276  IM1       C4             14.4862519332      -22.6743622912        9.2662150013  IM1       6               0.0000000000
      6190       276  IM1       DC4            14.4962640343      -22.6651070732        9.2891323900  IM1       6               0.0000000000
      6191       276  IM1       H6             15.0214455521      -21.7739646239        8.9646327887  IM1       6               0.0000000000
      6192       276  IM1       N2             15.0382363547      -23.7643552508        9.8034456870  IM1       6               0.0000000000
      6193       276  IM1       DN2            15.0763433550      -23.7544453061        9.8262751063  IM1       6               0.0000000000
      6194       276  IM1       H7             16.0088270422      -23.9256818124        9.9821282490  IM1       6               0.0000000000
      6195       276  IM1       LPN21          15.3288678917      -23.8012330326        9.8680470717  IM1       6               0.0000000000
      6196       277  IM1       C1              3.8775098637       -7.6400579743      -13.4087658655  IM1       7               0.0000000000
      6197       277  IM1       DC1             3.8956449220       -7.6888442628      -13.3993843398  IM1       7               0.0000000000
      6198       277  IM1       H1              4.5127458953       -8.4011804256      -13.9102524561  IM1       7               0.0000000000
      6199       277  IM1       H2              4.4204257512       -6.6718904243      -13.3617027645  IM1       7               0.0000000000
      6200       277  IM1       H3              2.9336224430       -7.4975871341      -13.9771843705  IM1       7               0.0000000000
      6201       277  IM1       N1              3.5536396126       -8.0423786868      -12.0758798808  IM1       7               0.0000000000
      6202       277  IM1       DN1             3.5619104190       -8.0662877365      -12.0614997495  IM1       7               0.0000000000
      6203       277  IM1       C2              3.9594891981       -9.2068903975      -11.4570915192  IM1       7               0.0000000000
      6204       277  IM1       DC2             3.9737697808       -9.2257189813      -11.4704907216  IM1       7               0.0000000000
      6205       277  IM1       H4              4.6259631255       -9.9304795623      -11.9099935227  IM1       7               0.0000000000
      6206       277  IM1       C3              3.3764615193       -9.1981589428      -10.2260077011  IM1       7               0.0000000000
      6207       277  IM1       DC3             3.3806875384       -9.1998227190      -10.2298622826  IM1       7               0.0000000000
      6208       277  IM1       H5              3.4399191125       -9.9232102659       -9.4240334417  IM1       7               0.0000000000
      6209       277  IM1       C4              2.7546272606       -7.3638376101      -11.2126275536  IM1       7               0.0000000000
      6210       277  IM1       DC4             2.7744056300       -7.4031417242      -11.2086907042  IM1       7               0.0000000000
      6211       277  IM1       H6              2.3202620617       -6.3920369049      -11.4472128549  IM1       7               0.0000000000
      6212       277  IM1       N2              2.6160669165       -8.0495339698      -10.0705699322  IM1       7               0.0000000000
      6213       277  IM1       DN2             2.6062577506       -8.0616601516      -10.0516032067  IM1       7               0.0000000000
      6214       277  IM1       H7              2.1031501916       -7.7662263031       -9.2602285222  IM1       7               0.0000000000
      6215       277  IM1       LPN21           2.4521065454       -7.9650639278       -9.8339651801  IM1       7               0.0000000000
      6216       278  IM1       C1             14.7896226986        2.5536745538      -12.6021171640  IM1       8               0.0000000000
      6217       278  IM1       DC1            14.7769969353        2.5353952816      -12.5843134678  IM1       8               0.0000000000
      6218       278  IM1       H1             14.6460170743        3.6262399561      -12.3505185087  IM1       8               0.0000000000
      6219       278  IM1       H2             14.9118130751        2.4780073118      -13.7037818046  IM1       8               0.0000000000
      6220       278  IM1       H3             15.6914526321        2.1650096282      -12.0825371904  IM1       8               0.0000000000
      6221       278  IM1       N1             13.6585461182        1.7835050844      -12.2012728483  IM1       8               0.0000000000
      6222       278  IM1       DN1            13.6652597135        1.7518104809      -12.1753694294  IM1       8               0.0000000000
      6223       278  IM1       C2             12.5098833539        2.2721759532      -11.6292904077  IM1       8               0.0000000000
      6224       278  IM1       DC2            12.5390375687        2.2773271212      -11.6184116669  IM1       8               0.0000000000
      6225       278  IM1       H4             12.3246496152        3.3342218751      -11.5261598022  IM1       8               0.0000000000
      6226       278  IM1       C3             11.6889785821        1.2000440194      -11.4574930658  IM1       8               0.0000000000
      6227       278  IM1       DC3            11.7025817271        1.2112310332      -11.4527211389  IM1       8               0.0000000000
      6228       278  IM1       H5             10.6587672058        1.1554337826      -11.1264893693  IM1       8               0.0000000000
      6229       278  IM1       C4             13.5197499029        0.4409384985      -12.3212585884  IM1       8               0.0000000000
      6230       278  IM1       DC4            13.5396070476        0.4411080369      -12.3099908379  IM1       8               0.0000000000
      6231       278  IM1       H6             14.2788156728       -0.2091496793      -12.7563499806  IM1       8               0.0000000000
      6232       278  IM1       N2             12.3375457009        0.0486254790      -11.8690566947  IM1       8               0.0000000000
      6233       278  IM1       DN2            12.3467595347        0.0578918125      -11.8712730793  IM1       8               0.0000000000
      6234       278  IM1       H7             11.9671566804       -0.8799768029      -11.8916349054  IM1       8               0.0000000000
      6235       278  IM1       LPN21          12.2396080034       -0.2348402917      -11.8616159779  IM1       8               0.0000000000
      6236       279  IM1       C1            -28.7437925872       20.5542690231      -28.2141592492  IM1       9               0.0000000000
      6237       279  IM1       DC1           -28.7583604598       20.5689587263      -28.2132882386  IM1       9               0.0000000000
      6238       279  IM1       H1            -29.8321201121       20.4305793680      -28.0282424206  IM1       9               0.0000000000
      6239       279  IM1       H2            -28.5752204918       21.3832114420      -28.9344084524  IM1       9               0.0000000000
      6240       279  IM1       H3            -28.2203231992       20.7609403003      -27.2562512255  IM1       9               0.0000000000
      6241       279  IM1       N1            -28.2046800383       19.3526920704      -28.7704767445  IM1       9               0.0000000000
      6242       279  IM1       DN1           -28.2015140188       19.3711223493      -28.7652107811  IM1       9               0.0000000000
      6243       279  IM1       C2            -28.8937510030       18.1895583841      -29.0358896062  IM1       9               0.0000000000
      6244       279  IM1       DC2           -28.8947310496       18.2283672977      -29.0191283480  IM1       9               0.0000000000
      6245       279  IM1       H4            -29.9596324746       18.0623464620      -28.8923527914  IM1       9               0.0000000000
      6246       279  IM1       C3            -27.9671905227       17.3063720041      -29.5076527886  IM1       9               0.0000000000
      6247       279  IM1       DC3           -27.9815930305       17.3228041384      -29.4847382513  IM1       9               0.0000000000
      6248       279  IM1       H5            -28.0847094649       16.2863143917      -29.8519793282  IM1       9               0.0000000000
      6249       279  IM1       C4            -26.9022964476       19.1437303103      -29.0785949571  IM1       9               0.0000000000
      6250       279  IM1       DC4           -26.9195851985       19.1532223912      -29.0759830977  IM1       9               0.0000000000
      6251       279  IM1       H6            -26.1222706441       19.8949952284      -28.9550604731  IM1       9               0.0000000000
      6252       279  IM1       N2            -26.7162712676       17.9024016220      -29.5088339051  IM1       9               0.0000000000
      6253       279  IM1       DN2           -26.7246240543       17.9068981278      -29.4917522821  IM1       9               0.0000000000
      6254       279  IM1       H7            -25.8547740580       17.4979839553      -29.8158663279  IM1       9               0.0000000000
      6255       279  IM1       LPN21         -26.4522975334       17.7839130410      -29.5880697797  IM1       9               0.0000000000
      6256       280  IM1       C1             18.0988272136       -8.2746133570       -6.3465846106  IM1       10              0.0000000000
      6257       280  IM1       DC1            18.0831790623       -8.2648958270       -6.3402112270  IM1       10              0.0000000000
      6258       280  IM1       H1             17.3924174112       -8.6775157083       -7.1035363170  IM1       10              0.0000000000
      6259       280  IM1       H2             18.6641679880       -9.1126875805       -5.8857783556  IM1       10              0.0000000000
      6260       280  IM1       H3             18.8041963718       -7.5722694625       -6.8400300516  IM1       10              0.0000000000
      6261       280  IM1       N1             17.3825614860       -7.5770147098       -5.3178995228  IM1       10              0.0000000000
      6262       280  IM1       DN1            17.3815857228       -7.5642681871       -5.3085566688  IM1       10              0.0000000000
      6263       280  IM1       C2             16.0186157909       -7.3786932740       -5.2600519229  IM1       10              0.0000000000
      6264       280  IM1       DC2            16.0285904379       -7.3747978618       -5.2700879954  IM1       10              0.0000000000
      6265       280  IM1       H4             15.3225394268       -7.8005788641       -5.9744602414  IM1       10              0.0000000000
      6266       280  IM1       C3             15.7968866937       -6.6346650484       -4.1394379003  IM1       10              0.0000000000
      6267       280  IM1       DC3            15.7919975800       -6.6295416652       -4.1437934810  IM1       10              0.0000000000
      6268       280  IM1       H5             14.8685976508       -6.2783606579       -3.7102344095  IM1       10              0.0000000000
      6269       280  IM1       C4             17.9383516482       -6.9511186591       -4.2505826490  IM1       10              0.0000000000
      6270       280  IM1       DC4            17.9354531406       -6.9439081843       -4.2619583733  IM1       10              0.0000000000
      6271       280  IM1       H6             19.0079238205       -6.9585828865       -4.0406787314  IM1       10              0.0000000000
      6272       280  IM1       N2             17.0016297574       -6.3526188457       -3.5160645398  IM1       10              0.0000000000
      6273       280  IM1       DN2            17.0020888369       -6.3435784741       -3.5197363767  IM1       10              0.0000000000
      6274       280  IM1       H7             17.1401602185       -5.8371550808       -2.6704248884  IM1       10              0.0000000000
      6275       280  IM1       LPN21          17.0506960882       -6.1915960342       -3.2677418679  IM1       10              0.0000000000
      6276       281  IM1       C1             10.5596448199      -20.6653179687        0.8815518720  IM1       11              0.0000000000
      6277       281  IM1       DC1            10.5519140612      -20.6552465803        0.8735808366  IM1       11              0.0000000000
      6278       281  IM1       H1             10.3116429890      -21.4457758691        1.6323524838  IM1       11              0.0000000000
      6279       281  IM1       H2              9.7261827486      -20.5811220937        0.1517758568  IM1       11              0.0000000000
      6280       281  IM1       H3             10.7291479519      -19.6971020672        1.3993816294  IM1       11              0.0000000000
      6281       281  IM1       N1             11.7547811033      -21.0269268684        0.1813013038  IM1       11              0.0000000000
      6282       281  IM1       DN1            11.7446245416      -20.9981633182        0.1677795519  IM1       11              0.0000000000
      6283       281  IM1       C2             12.4630521011      -22.1978641394        0.3256846418  IM1       11              0.0000000000
      6284       281  IM1       DC2            12.4312111995      -22.1578945019        0.3236733042  IM1       11              0.0000000000
      6285       281  IM1       H4             12.2123359558      -22.9820462515        1.0293101321  IM1       11              0.0000000000
      6286       281  IM1       C3             13.4910781899      -22.1283772138       -0.5674504329  IM1       11              0.0000000000
      6287       281  IM1       DC3            13.4763373108      -22.1122328230       -0.5603662205  IM1       11              0.0000000000
      6288       281  IM1       H5             14.2784171390      -22.8408165660       -0.7805620204  IM1       11              0.0000000000
      6289       281  IM1       C4             12.3606569768      -20.2913319791       -0.7817800664  IM1       11              0.0000000000
      6290       281  IM1       DC4            12.3437153576      -20.2780379421       -0.7870909261  IM1       11              0.0000000000
      6291       281  IM1       H6             12.0037089742      -19.3178279404       -1.1179020829  IM1       11              0.0000000000
      6292       281  IM1       N2             13.4221585144      -20.9272834047       -1.2596814795  IM1       11              0.0000000000
      6293       281  IM1       DN2            13.4109658822      -20.9182460314       -1.2595286556  IM1       11              0.0000000000
      6294       281  IM1       H7             14.0351576512      -20.6133803639       -1.9847310911  IM1       11              0.0000000000
      6295       281  IM1       LPN21          13.6042347011      -20.8235554234       -1.4743644275  IM1       11              0.0000000000
      6296       282  IM1       C1              8.0769323203       -8.1340329897       -2.6129300281  IM1       12              0.0000000000
      6297       282  IM1       DC1             8.0988112150       -8.1398940960       -2.6111975860  IM1       12              0.0000000000
      6298       282  IM1       H1              8.4653929833       -7.0954802085       -2.6824097691  IM1       12              0.0000000000
      6299       282  IM1       H2              7.5302615557       -8.2654379794       -1.6546999899  IM1       12              0.0000000000
      6300       282  IM1       H3              7.3921554402       -8.3241107289       -3.4669043120  IM1       12              0.0000000000
      6301       282  IM1       N1              9.1542794349       -9.0754967136       -2.6613652909  IM1       12              0.0000000000
      6302       282  IM1       DN1             9.1674668884       -9.0880208002       -2.6572796069  IM1       12              0.0000000000
      6303       282  IM1       C2             10.4967085638       -8.7788509193       -2.7363655695  IM1       12              0.0000000000
      6304       282  IM1       DC2            10.4882888740       -8.7722202614       -2.7393610415  IM1       12              0.0000000000
      6305       282  IM1       H4             10.8846559838       -7.7677224466       -2.7386045610  IM1       12              0.0000000000
      6306       282  IM1       C3             11.1463299936       -9.9737934074       -2.7866101622  IM1       12              0.0000000000
      6307       282  IM1       DC3            11.1463490876       -9.9731898679       -2.7837722408  IM1       12              0.0000000000
      6308       282  IM1       H5             12.2048043767      -10.1869516927       -2.8707797872  IM1       12              0.0000000000
      6309       282  IM1       C4              9.0295551279      -10.4243344086       -2.6555606863  IM1       12              0.0000000000
      6310       282  IM1       DC4             9.0351766638      -10.4171365050       -2.6499206379  IM1       12              0.0000000000
      6311       282  IM1       H6              8.0664456870      -10.9323876405       -2.6065492772  IM1       12              0.0000000000
      6312       282  IM1       N2             10.2260910134      -11.0068319426       -2.7204836450  IM1       12              0.0000000000
      6313       282  IM1       DN2            10.2293670133      -11.0082769216       -2.7119501533  IM1       12              0.0000000000
      6314       282  IM1       H7             10.4155808893      -11.9883411184       -2.7475636497  IM1       12              0.0000000000
      6315       282  IM1       LPN21          10.2766126651      -11.3025471988       -2.7202601717  IM1       12              0.0000000000
      6316       283  IM1       C1             21.4543398212        8.8240971910       -6.1187720718  IM1       13              0.0000000000
      6317       283  IM1       DC1            21.4611307146        8.8068171745       -6.1143198421  IM1       13              0.0000000000
      6318       283  IM1       H1             22.2920129165        8.3663459040       -5.5503632888  IM1       13              0.0000000000
      6319       283  IM1       H2             21.8380691062        9.6550609607       -6.7485117407  IM1       13              0.0000000000
      6320       283  IM1       H3             20.9673500938        8.0528012522       -6.7530153851  IM1       13              0.0000000000
      6321       283  IM1       N1             20.4773924129        9.3375343426       -5.2193472120  IM1       13              0.0000000000
      6322       283  IM1       DN1            20.4707475153        9.3443907312       -5.2413224409  IM1       13              0.0000000000
      6323       283  IM1       C2             20.4359378467        9.0382154170       -3.8890867230  IM1       13              0.0000000000
      6324       283  IM1       DC2            20.4384664443        9.0454852199       -3.9368231332  IM1       13              0.0000000000
      6325       283  IM1       H4             21.2544086989        8.5732300966       -3.3535653733  IM1       13              0.0000000000
      6326       283  IM1       C3             19.2651194661        9.5335372658       -3.4159109233  IM1       13              0.0000000000
      6327       283  IM1       DC3            19.2529398096        9.5435041376       -3.4411257152  IM1       13              0.0000000000
      6328       283  IM1       H5             18.8696203853        9.5255478662       -2.4077414700  IM1       13              0.0000000000
      6329       283  IM1       C4             19.3444763441       10.0109587425       -5.5239472713  IM1       13              0.0000000000
      6330       283  IM1       DC4            19.3441117173       10.0086793084       -5.5254411234  IM1       13              0.0000000000
      6331       283  IM1       H6             19.1026031564       10.3607654484       -6.5275570708  IM1       13              0.0000000000
      6332       283  IM1       N2             18.5870094967       10.1685770836       -4.4399342319  IM1       13              0.0000000000
      6333       283  IM1       DN2            18.5803129844       10.1857092967       -4.4421475689  IM1       13              0.0000000000
      6334       283  IM1       H7             17.7004194781       10.6275887442       -4.3827814893  IM1       13              0.0000000000
      6335       283  IM1       LPN21          18.3245631191       10.3135002970       -4.4290181391  IM1       13              0.0000000000
      6336       284  IM1       C1             -3.5183376740       19.2760971066      -11.4433046292  IM1       14              0.0000000000
      6337       284  IM1       DC1            -3.5048994067       19.3228426614      -11.4120339295  IM1       14              0.0000000000
      6338       284  IM1       H1             -3.8441512979       18.6187391791      -10.6090102934  IM1       14              0.0000000000
      6339       284  IM1       H2             -4.2831320193       20.0637614572      -11.6135852205  IM1       14              0.0000000000
      6340       284  IM1       H3             -2.5149438085       19.6984578174      -11.2216445727  IM1       14              0.0000000000
      6341       284  IM1       N1             -3.3989919435       18.5093770689      -12.6328919018  IM1       14              0.0000000000
      6342       284  IM1       DN1            -3.3852269940       18.5682622582      -12.6170811376  IM1       14              0.0000000000
      6343       284  IM1       C2             -3.5217049621       17.1551840506      -12.7097017668  IM1       14              0.0000000000
      6344       284  IM1       DC2            -3.5122440462       17.2325406778      -12.6911690708  IM1       14              0.0000000000
      6345       284  IM1       H4             -3.8721480369       16.5266172217      -11.9003919418  IM1       14              0.0000000000
      6346       284  IM1       C3             -3.1536635337       16.8099741099      -13.9766091261  IM1       14              0.0000000000
      6347       284  IM1       DC3            -3.1489324983       16.8476855062      -13.9570169329  IM1       14              0.0000000000
      6348       284  IM1       H5             -3.1277273377       15.8332165728      -14.4436862372  IM1       14              0.0000000000
      6349       284  IM1       C4             -2.9511697040       18.9507548037      -13.8318756912  IM1       14              0.0000000000
      6350       284  IM1       DC4            -2.9217651340       18.9780134674      -13.8157846099  IM1       14              0.0000000000
      6351       284  IM1       H6             -2.8167238324       20.0058051881      -14.0703982143  IM1       14              0.0000000000
      6352       284  IM1       N2             -2.7673874544       17.9451258990      -14.6750352051  IM1       14              0.0000000000
      6353       284  IM1       DN2            -2.7487568205       17.9640353004      -14.6729994917  IM1       14              0.0000000000
      6354       284  IM1       H7             -2.4837075522       18.0005948092      -15.6323485880  IM1       14              0.0000000000
      6355       284  IM1       LPN21          -2.6636550367       17.9687458820      -14.9555377575  IM1       14              0.0000000000
      6356       285  IM1       C1              9.7777774814       24.0110546855       12.9372593177  IM1       15              0.0000000000
      6357       285  IM1       DC1             9.7849474681       24.0264291436       12.9444670175  IM1       15              0.0000000000
      6358       285  IM1       H1             10.2497274184       23.3786089468       13.7193057648  IM1       15              0.0000000000
      6359       285  IM1       H2             10.3113988247       24.9832375436       12.8707029324  IM1       15              0.0000000000
      6360       285  IM1       H3              9.8259257808       23.4773382715       11.9640432412  IM1       15              0.0000000000
      6361       285  IM1       N1              8.4026885861       24.2564441409       13.2679237712  IM1       15              0.0000000000
      6362       285  IM1       DN1             8.4027084398       24.2712432984       13.2587969972  IM1       15              0.0000000000
      6363       285  IM1       C2              7.7408160284       23.7525599785       14.3611489734  IM1       15              0.0000000000
      6364       285  IM1       DC2             7.7659784036       23.7628812680       14.3461639865  IM1       15              0.0000000000
      6365       285  IM1       H4              8.2104458459       23.1291843648       15.1119749710  IM1       15              0.0000000000
      6366       285  IM1       C3              6.4703289920       24.2402519527       14.2978598518  IM1       15              0.0000000000
      6367       285  IM1       DC3             6.4887841530       24.2516263540       14.3039895260  IM1       15              0.0000000000
      6368       285  IM1       H5              5.6436565774       24.1044517745       14.9841979832  IM1       15              0.0000000000
      6369       285  IM1       C4              7.5283168699       25.0364806710       12.5844158930  IM1       15              0.0000000000
      6370       285  IM1       DC4             7.5411968789       25.0374793099       12.5811230983  IM1       15              0.0000000000
      6371       285  IM1       H6              7.7750522246       25.5521971784       11.6563759430  IM1       15              0.0000000000
      6372       285  IM1       N2              6.3422053579       25.0533662210       13.1852685100  IM1       15              0.0000000000
      6373       285  IM1       DN2             6.3495000971       25.0502802975       13.1829769643  IM1       15              0.0000000000
      6374       285  IM1       H7              5.5278575043       25.5586421207       12.8997272021  IM1       15              0.0000000000
      6375       285  IM1       LPN21           6.1013032959       25.2055423785       13.0914142953  IM1       15              0.0000000000
      6376       286  IM1       C1            -19.4456638081       -7.1859428775       23.1981029631  IM1       16              0.0000000000
      6377       286  IM1       DC1           -19.4797751230       -7.1771463501       23.1897916419  IM1       16              0.0000000000
      6378       286  IM1       H1            -19.1180962476       -6.1786562943       22.8628504693  IM1       16              0.0000000000
      6379       286  IM1       H2            -19.3220713021       -7.9205898757       22.3738823124  IM1       16              0.0000000000
      6380       286  IM1       H3            -18.8346858412       -7.4939831755       24.0733961133  IM1       16              0.0000000000
      6381       286  IM1       N1            -20.8192553563       -7.1696683563       23.5747293037  IM1       16              0.0000000000
      6382       286  IM1       DN1           -20.8559093082       -7.1591506285       23.5780930758  IM1       16              0.0000000000
      6383       286  IM1       C2            -21.6397027792       -6.0711227177       23.5617615209  IM1       16              0.0000000000
      6384       286  IM1       DC2           -21.6472544336       -6.0508187082       23.5416113924  IM1       16              0.0000000000
      6385       286  IM1       H4            -21.2713680712       -5.0704319161       23.3724563109  IM1       16              0.0000000000
      6386       286  IM1       C3            -22.8621606675       -6.5190661424       23.9544859897  IM1       16              0.0000000000
      6387       286  IM1       DC3           -22.8772790824       -6.5137402298       23.9289561917  IM1       16              0.0000000000
      6388       286  IM1       H5            -23.7729419048       -5.9643160968       24.1432157561  IM1       16              0.0000000000
      6389       286  IM1       C4            -21.5596679048       -8.2337995673       23.9666550960  IM1       16              0.0000000000
      6390       286  IM1       DC4           -21.5647084518       -8.2232831859       23.9574918563  IM1       16              0.0000000000
      6391       286  IM1       H6            -21.1562546745       -9.2424705254       24.0557654988  IM1       16              0.0000000000
      6392       286  IM1       N2            -22.8249819321       -7.8760354528       24.1817365365  IM1       16              0.0000000000
      6393       286  IM1       DN2           -22.8383887925       -7.8736980566       24.1703339050  IM1       16              0.0000000000
      6394       286  IM1       H7            -23.5761481519       -8.4576246693       24.4939917123  IM1       16              0.0000000000
      6395       286  IM1       LPN21         -23.0490757623       -8.0584246570       24.2624591074  IM1       16              0.0000000000
      6396       287  IM1       C1             24.6721803683       26.8432414488       17.2655593539  IM1       17              0.0000000000
      6397       287  IM1       DC1            24.6877786719       26.8408132485       17.2582543958  IM1       17              0.0000000000
      6398       287  IM1       H1             25.7619609208       26.6648069621       17.1436557694  IM1       17              0.0000000000
      6399       287  IM1       H2             24.5133351892       27.7317209266       17.9133968549  IM1       17              0.0000000000
      6400       287  IM1       H3             24.2127185325       27.0021314582       16.2665749765  IM1       17              0.0000000000
      6401       287  IM1       N1             24.0506634985       25.7086871642       17.8813982024  IM1       17              0.0000000000
      6402       287  IM1       DN1            24.0583161137       25.7122009108       17.8770646250  IM1       17              0.0000000000
      6403       287  IM1       C2             24.7191231840       24.5908632376       18.2916487161  IM1       17              0.0000000000
      6404       287  IM1       DC2            24.7285462235       24.6097822042       18.2731627786  IM1       17              0.0000000000
      6405       287  IM1       H4             25.7898588274       24.4617679933       18.1929137179  IM1       17              0.0000000000
      6406       287  IM1       C3             23.7972489508       23.7823405732       18.8831449185  IM1       17              0.0000000000
      6407       287  IM1       DC3            23.8110142316       23.7818704551       18.8747470837  IM1       17              0.0000000000
      6408       287  IM1       H5             23.9259711354       22.8197418425       19.3624394883  IM1       17              0.0000000000
      6409       287  IM1       C4             22.7530810650       25.5500180625       18.2305853459  IM1       17              0.0000000000
      6410       287  IM1       DC4            22.7881079502       25.5516252239       18.2349167073  IM1       17              0.0000000000
      6411       287  IM1       H6             21.9738750490       26.2732370932       17.9899773283  IM1       17              0.0000000000
      6412       287  IM1       N2             22.5645960101       24.3853235318       18.8512538359  IM1       17              0.0000000000
      6413       287  IM1       DN2            22.5813081177       24.3800583064       18.8568370546  IM1       17              0.0000000000
      6414       287  IM1       H7             21.7035926892       24.0184683729       19.2035187558  IM1       17              0.0000000000
      6415       287  IM1       LPN21          22.3042305348       24.2824658584       18.9590968620  IM1       17              0.0000000000
      6416       288  IM1       C1            -25.4232149205       13.8244182621      -17.1924159458  IM1       18              0.0000000000
      6417       288  IM1       DC1           -25.4496512951       13.8203522776      -17.2128648533  IM1       18              0.0000000000
      6418       288  IM1       H1            -26.1225474536       14.6402646584      -16.9101932209  IM1       18              0.0000000000
      6419       288  IM1       H2            -25.8097452392       13.2991525228      -18.0918664535  IM1       18              0.0000000000
      6420       288  IM1       H3            -24.4145320550       14.2457140419      -17.3908844436  IM1       18              0.0000000000
      6421       288  IM1       N1            -25.3135545990       12.8874175085      -16.1186448592  IM1       18              0.0000000000
      6422       288  IM1       DN1           -25.3341089547       12.8918368759      -16.1288115955  IM1       18              0.0000000000
      6423       288  IM1       C2            -26.0833498879       12.8710380469      -14.9739570112  IM1       18              0.0000000000
      6424       288  IM1       DC2           -26.1004651368       12.8707624135      -14.9959173389  IM1       18              0.0000000000
      6425       288  IM1       H4            -26.6866680086       13.7061228701      -14.6399965592  IM1       18              0.0000000000
      6426       288  IM1       C3            -25.7950446948       11.6958108542      -14.3503175885  IM1       18              0.0000000000
      6427       288  IM1       DC3           -25.8303467517       11.6886978831      -14.3474117239  IM1       18              0.0000000000
      6428       288  IM1       H5            -26.1064505474       11.3178351946      -13.3843725613  IM1       18              0.0000000000
      6429       288  IM1       C4            -24.6174694578       11.7276527591      -16.1655282597  IM1       18              0.0000000000
      6430       288  IM1       DC4           -24.6685435102       11.7373352109      -16.1876180250  IM1       18              0.0000000000
      6431       288  IM1       H6            -23.8750659207       11.4943792478      -16.9287585375  IM1       18              0.0000000000
      6432       288  IM1       N2            -24.9390798071       10.9480697883      -15.1303572651  IM1       18              0.0000000000
      6433       288  IM1       DN2           -24.9807202251       10.9464366480      -15.1411803071  IM1       18              0.0000000000
      6434       288  IM1       H7            -24.5216763310       10.0677477299      -14.9049522706  IM1       18              0.0000000000
      6435       288  IM1       LPN21         -24.8411902396       10.6683582165      -15.0836767640  IM1       18              0.0000000000
      6436       289  IM1       C1             10.1271544097       16.9776200345       28.9819361196  IM1       19              0.0000000000
      6437       289  IM1       DC1            10.0953177047       16.9998999482       29.0226408146  IM1       19              0.0000000000
      6438       289  IM1       H1              9.0352579082       17.0200184217       29.1826483698  IM1       19              0.0000000000
      6439       289  IM1       H2             10.3129596692       17.4800690027       28.0086209394  IM1       19              0.0000000000
      6440       289  IM1       H3             10.7277086549       17.4486407336       29.7892744017  IM1       19              0.0000000000
      6441       289  IM1       N1             10.5093744127       15.6150570270       28.8608526504  IM1       19              0.0000000000
      6442       289  IM1       DN1            10.5020919767       15.6379044382       28.8703781297  IM1       19              0.0000000000
      6443       289  IM1       C2              9.7246445865       14.5360077661       29.2044319467  IM1       19              0.0000000000
      6444       289  IM1       DC2             9.7231717031       14.5731477370       29.2236324461  IM1       19              0.0000000000
      6445       289  IM1       H4              8.7272078707       14.6099033493       29.6198214517  IM1       19              0.0000000000
      6446       289  IM1       C3             10.4310410590       13.4326815713       28.8331487002  IM1       19              0.0000000000
      6447       289  IM1       DC3            10.4203798741       13.4492015010       28.8554368649  IM1       19              0.0000000000
      6448       289  IM1       H5             10.1636953806       12.3842560082       28.8802563097  IM1       19              0.0000000000
      6449       289  IM1       C4             11.6592108216       15.1437004266       28.3243144940  IM1       19              0.0000000000
      6450       289  IM1       DC4            11.6247776182       15.1505510217       28.3361671718  IM1       19              0.0000000000
      6451       289  IM1       H6             12.4724346350       15.7792084951       27.9737484865  IM1       19              0.0000000000
      6452       289  IM1       N2             11.6479663946       13.8143627557       28.2996274638  IM1       19              0.0000000000
      6453       289  IM1       DN2            11.6332661956       13.8149264986       28.3121123469  IM1       19              0.0000000000
      6454       289  IM1       H7             12.3595947911       13.2227609027       27.9206917530  IM1       19              0.0000000000
      6455       289  IM1       LPN21          11.8696315455       13.6402002722       28.1970019784  IM1       19              0.0000000000
      6456       290  IM1       C1             -3.9484841255       27.8927006452        3.6832753036  IM1       20              0.0000000000
      6457       290  IM1       DC1            -3.9364241087       27.9249123185        3.6858090369  IM1       20              0.0000000000
      6458       290  IM1       H1             -2.9751302223       28.4245085323        3.6193726365  IM1       20              0.0000000000
      6459       290  IM1       H2             -4.4361735447       28.1294655045        4.6530291032  IM1       20              0.0000000000
      6460       290  IM1       H3             -4.6017459938       28.1836102359        2.8330156123  IM1       20              0.0000000000
      6461       290  IM1       N1             -3.7415933246       26.4839208205        3.6376824226  IM1       20              0.0000000000
      6462       290  IM1       DN1            -3.7359763589       26.5027135867        3.6374269240  IM1       20              0.0000000000
      6463       290  IM1       C2             -2.5140978847       25.8641084555        3.6045159209  IM1       20              0.0000000000
      6464       290  IM1       DC2            -2.5171198549       25.8876073961        3.6092360565  IM1       20              0.0000000000
      6465       290  IM1       H4             -1.5696909450       26.3889310675        3.5300460744  IM1       20              0.0000000000
      6466       290  IM1       C3             -2.7687083074       24.5295139238        3.6684596524  IM1       20              0.0000000000
      6467       290  IM1       DC3            -2.7529752399       24.5308513150        3.6773529713  IM1       20              0.0000000000
      6468       290  IM1       H5             -2.0846458756       23.6899153113        3.6637949626  IM1       20              0.0000000000
      6469       290  IM1       C4             -4.6932485573       25.5208220949        3.7219349900  IM1       20              0.0000000000
      6470       290  IM1       DC4            -4.6650296294       25.5433794724        3.7274062931  IM1       20              0.0000000000
      6471       290  IM1       H6             -5.7628271580       25.7276047687        3.7585757140  IM1       20              0.0000000000
      6472       290  IM1       N2             -4.1284128057       24.3134571891        3.7562627937  IM1       20              0.0000000000
      6473       290  IM1       DN2            -4.1074312060       24.3188293101        3.7631692337  IM1       20              0.0000000000
      6474       290  IM1       H7             -4.6063408989       23.4360977315        3.7989842164  IM1       20              0.0000000000
      6475       290  IM1       LPN21          -4.2743158592       24.0522867473        3.7786748295  IM1       20              0.0000000000
      6476       291  IM1       C1            -20.6214690217       -8.0067784460       -2.3091226264  IM1       21              0.0000000000
      6477       291  IM1       DC1           -20.6027434901       -8.0110696449       -2.3082529497  IM1       21              0.0000000000
      6478       291  IM1       H1            -20.6542550962       -6.8967047713       -2.2777775760  IM1       21              0.0000000000
      6479       291  IM1       H2            -21.1651783002       -8.4064398043       -1.4265287103  IM1       21              0.0000000000
      6480       291  IM1       H3            -21.0924291404       -8.3682909218       -3.2481786931  IM1       21              0.0000000000
      6481       291  IM1       N1            -19.2652405077       -8.4579217043       -2.2677418182  IM1       21              0.0000000000
      6482       291  IM1       DN1           -19.2553129550       -8.4772946969       -2.2618376278  IM1       21              0.0000000000
      6483       291  IM1       C2            -18.1468195130       -7.6703211714       -2.4059334958  IM1       21              0.0000000000
      6484       291  IM1       DC2           -18.1650686925       -7.6796617225       -2.3869853887  IM1       21              0.0000000000
      6485       291  IM1       H4            -18.1755481601       -6.6062807430       -2.6056373555  IM1       21              0.0000000000
      6486       291  IM1       C3            -17.0813783129       -8.5071709267       -2.2629494030  IM1       21              0.0000000000
      6487       291  IM1       DC3           -17.0834327194       -8.5097840036       -2.2151509927  IM1       21              0.0000000000
      6488       291  IM1       H5            -16.0206011940       -8.2920667024       -2.2999774576  IM1       21              0.0000000000
      6489       291  IM1       C4            -18.8519082110       -9.7302516193       -2.0440862835  IM1       21              0.0000000000
      6490       291  IM1       DC4           -18.8555604633       -9.7315804843       -2.0398442069  IM1       21              0.0000000000
      6491       291  IM1       H6            -19.5320108152      -10.5778724324       -1.9598283168  IM1       21              0.0000000000
      6492       291  IM1       N2            -17.5242465615       -9.7920235187       -1.9914833723  IM1       21              0.0000000000
      6493       291  IM1       DN2           -17.5244869900       -9.7966929912       -1.9735852071  IM1       21              0.0000000000
      6494       291  IM1       H7            -16.9619038976      -10.6119449626       -1.8842473983  IM1       21              0.0000000000
      6495       291  IM1       LPN21         -17.3627884337      -10.0378520423       -1.9323258713  IM1       21              0.0000000000
      6496       292  IM1       C1             -9.0817995048      -27.5714691461       22.0532755916  IM1       22              0.0000000000
      6497       292  IM1       DC1            -9.0822543639      -27.5594828545       22.0346227153  IM1       22              0.0000000000
      6498       292  IM1       H1            -10.0287110324      -27.0336402454       21.8332309745  IM1       22              0.0000000000
      6499       292  IM1       H2             -8.7641146251      -27.3454607195       23.0936204903  IM1       22              0.0000000000
      6500       292  IM1       H3             -9.2364500891      -28.6641296289       21.9248338988  IM1       22              0.0000000000
      6501       292  IM1       N1             -8.0529785906      -27.1376717164       21.1619800232  IM1       22              0.0000000000
      6502       292  IM1       DN1            -8.0477687024      -27.1318608431       21.1446341879  IM1       22              0.0000000000
      6503       292  IM1       C2             -8.1131627308      -26.0015224222       20.3943154484  IM1       22              0.0000000000
      6504       292  IM1       DC2            -8.1172467278      -26.0074966885       20.3884915288  IM1       22              0.0000000000
      6505       292  IM1       H4             -8.9691556494      -25.3383587154       20.3748469764  IM1       22              0.0000000000
      6506       292  IM1       C3             -6.9170181653      -25.9106950742       19.7623442875  IM1       22              0.0000000000
      6507       292  IM1       DC3            -6.9190782868      -25.9094611602       19.7528038251  IM1       22              0.0000000000
      6508       292  IM1       H5             -6.5538714348      -25.1581997846       19.0733128722  IM1       22              0.0000000000
      6509       292  IM1       C4             -6.8297956144      -27.6949851827       20.9784134331  IM1       22              0.0000000000
      6510       292  IM1       DC4            -6.8474992059      -27.6857539535       20.9689043901  IM1       22              0.0000000000
      6511       292  IM1       H6             -6.4778759547      -28.5762689689       21.5146889605  IM1       22              0.0000000000
      6512       292  IM1       N2             -6.1133795682      -26.9750366001       20.1146198233  IM1       22              0.0000000000
      6513       292  IM1       DN2            -6.1186850687      -26.9686410406       20.1032585342  IM1       22              0.0000000000
      6514       292  IM1       H7             -5.1687323797      -27.1395976114       19.8307864872  IM1       22              0.0000000000
      6515       292  IM1       LPN21          -5.8353836063      -27.0380638512       20.0211007838  IM1       22              0.0000000000
      6516       293  IM1       C1            -10.7354665125       18.1173386001      -21.6088773192  IM1       23              0.0000000000
      6517       293  IM1       DC1           -10.7228654089       18.1176780940      -21.6095698297  IM1       23              0.0000000000
      6518       293  IM1       H1            -10.0776303804       17.4554926088      -22.2118138909  IM1       23              0.0000000000
      6519       293  IM1       H2            -11.2091737417       18.8699532435      -22.2748305154  IM1       23              0.0000000000
      6520       293  IM1       H3            -11.5185702215       17.4995444459      -21.1195921624  IM1       23              0.0000000000
      6521       293  IM1       N1             -9.9538430889       18.7798730594      -20.6052695869  IM1       23              0.0000000000
      6522       293  IM1       DN1            -9.9728504083       18.7841831905      -20.5981730617  IM1       23              0.0000000000
      6523       293  IM1       C2             -8.5828230910       18.7367483159      -20.4436006301  IM1       23              0.0000000000
      6524       293  IM1       DC2            -8.6245311612       18.7190560252      -20.4626248260  IM1       23              0.0000000000
      6525       293  IM1       H4             -7.8969557632       18.1873724976      -21.0765786863  IM1       23              0.0000000000
      6526       293  IM1       C3             -8.3013820789       19.5307732550      -19.3724028810  IM1       23              0.0000000000
      6527       293  IM1       DC3            -8.3494158672       19.5134414334      -19.3758774039  IM1       23              0.0000000000
      6528       293  IM1       H5             -7.3493364776       19.7737743816      -18.9169375963  IM1       23              0.0000000000
      6529       293  IM1       C4            -10.4566224232       19.5928972163      -19.6472790969  IM1       23              0.0000000000
      6530       293  IM1       DC4           -10.4581457667       19.5854743103      -19.6538734356  IM1       23              0.0000000000
      6531       293  IM1       H6            -11.5204985067       19.8082606979      -19.5478494749  IM1       23              0.0000000000
      6532       293  IM1       N2             -9.4839162521       20.0527516703      -18.8650226696  IM1       23              0.0000000000
      6533       293  IM1       DN2            -9.4922078366       20.0464821997      -18.8489816406  IM1       23              0.0000000000
      6534       293  IM1       H7             -9.5907114502       20.6698778691      -18.0854394215  IM1       23              0.0000000000
      6535       293  IM1       LPN21          -9.5224831604       20.2329733232      -18.6283102926  IM1       23              0.0000000000
      6536       294  IM1       C1             19.7134352183       17.0711474128       -8.5534701669  IM1       24              0.0000000000
      6537       294  IM1       DC1            19.7015165427       17.0699380307       -8.5645705258  IM1       24              0.0000000000
      6538       294  IM1       H1             18.9345434187       16.3844825120       -8.9486155582  IM1       24              0.0000000000
      6539       294  IM1       H2             19.9089562181       16.8490782745       -7.4825930325  IM1       24              0.0000000000
      6540       294  IM1       H3             20.6498512334       16.9379597630       -9.1363141397  IM1       24              0.0000000000
      6541       294  IM1       N1             19.2825540539       18.4348635431       -8.6730306131  IM1       24              0.0000000000
      6542       294  IM1       DN1            19.2899109840       18.4408493056       -8.6879163364  IM1       24              0.0000000000
      6543       294  IM1       C2             18.1598310391       18.8610694387       -9.3513983838  IM1       24              0.0000000000
      6544       294  IM1       DC2            18.1836201263       18.8516311945       -9.3770141487  IM1       24              0.0000000000
      6545       294  IM1       H4             17.3507233108       18.2054112321       -9.6486289342  IM1       24              0.0000000000
      6546       294  IM1       C3             18.2670718501       20.2158052186       -9.4399338430  IM1       24              0.0000000000
      6547       294  IM1       DC3            18.2766922101       20.2243231565       -9.4529391697  IM1       24              0.0000000000
      6548       294  IM1       H5             17.5757495386       20.9397940743       -9.8532165531  IM1       24              0.0000000000
      6549       294  IM1       C4             20.0498407107       19.5256390773       -8.4169898555  IM1       24              0.0000000000
      6550       294  IM1       DC4            20.0472999763       19.5227955405       -8.4393894364  IM1       24              0.0000000000
      6551       294  IM1       H6             21.0145784132       19.4729135420       -7.9124096505  IM1       24              0.0000000000
      6552       294  IM1       N2             19.4623938173       20.6319777226       -8.8759020630  IM1       24              0.0000000000
      6553       294  IM1       DN2            19.4632297950       20.6445955080       -8.8772174211  IM1       24              0.0000000000
      6554       294  IM1       H7             19.8068585574       21.5682272939       -8.8067588568  IM1       24              0.0000000000
      6555       294  IM1       LPN21          19.5734471639       20.9100023275       -8.8566803756  IM1       24              0.0000000000
      6556       295  IM1       C1             26.7708478119        2.3312212433       19.6045624974  IM1       25              0.0000000000
      6557       295  IM1       DC1            26.7275056155        2.3326517231       19.6078588478  IM1       25              0.0000000000
      6558       295  IM1       H1             27.1936050395        3.3529091957       19.7129647831  IM1       25              0.0000000000
      6559       295  IM1       H2             27.2006700906        1.8490618339       18.7006288092  IM1       25              0.0000000000
      6560       295  IM1       H3             27.0252406112        1.7446903589       20.5131805832  IM1       25              0.0000000000
      6561       295  IM1       N1             25.3465734904        2.3897671656       19.4700580131  IM1       25              0.0000000000
      6562       295  IM1       DN1            25.3041781014        2.3828424292       19.4719606534  IM1       25              0.0000000000
      6563       295  IM1       C2             24.5745058362        3.5278826846       19.5333857341  IM1       25              0.0000000000
      6564       295  IM1       DC2            24.5586123391        3.5164905570       19.5269340338  IM1       25              0.0000000000
      6565       295  IM1       H4             24.9913237593        4.5225661508       19.6321613481  IM1       25              0.0000000000
      6566       295  IM1       C3             23.2862202202        3.1112868171       19.4373222247  IM1       25              0.0000000000
      6567       295  IM1       DC3            23.2551033122        3.0982106674       19.4378398487  IM1       25              0.0000000000
      6568       295  IM1       H5             22.3740938390        3.6940364849       19.4010277427  IM1       25              0.0000000000
      6569       295  IM1       C4             24.5098523845        1.3286958404       19.3479377001  IM1       25              0.0000000000
      6570       295  IM1       DC4            24.5015496520        1.3137258167       19.3643620771  IM1       25              0.0000000000
      6571       295  IM1       H6             24.8606123154        0.3028123368       19.2355521669  IM1       25              0.0000000000
      6572       295  IM1       N2             23.2380545560        1.7277294125       19.3475547986  IM1       25              0.0000000000
      6573       295  IM1       DN2            23.2234727345        1.7168217343       19.3594260275  IM1       25              0.0000000000
      6574       295  IM1       H7             22.4261149589        1.1555825667       19.2317874558  IM1       25              0.0000000000
      6575       295  IM1       LPN21          22.9979698497        1.5485916785       19.3311533938  IM1       25              0.0000000000
      6576       296  IM1       C1             13.9264066732      -24.4391231197      -12.4645269047  IM1       26              0.0000000000
      6577       296  IM1       DC1            13.9238380323      -24.4366558105      -12.4589154833  IM1       26              0.0000000000
      6578       296  IM1       H1             14.7646646431      -23.7182922030      -12.5742873962  IM1       26              0.0000000000
      6579       296  IM1       H2             13.4940865910      -24.3545308179      -11.4445933338  IM1       26              0.0000000000
      6580       296  IM1       H3             13.1548364080      -24.2224018198      -13.2339631934  IM1       26              0.0000000000
      6581       296  IM1       N1             14.4032688078      -25.7775011979      -12.6561902714  IM1       26              0.0000000000
      6582       296  IM1       DN1            14.3782529667      -25.7823117816      -12.6492429861  IM1       26              0.0000000000
      6583       296  IM1       C2             15.6991573800      -26.1428886415      -12.9358395283  IM1       26              0.0000000000
      6584       296  IM1       DC2            15.6524913429      -26.1443615240      -12.9229715583  IM1       26              0.0000000000
      6585       296  IM1       H4             16.5198014813      -25.4449965984      -13.0471002867  IM1       26              0.0000000000
      6586       296  IM1       C3             15.6935411755      -27.5005651985      -13.0467186998  IM1       26              0.0000000000
      6587       296  IM1       DC3            15.6786472576      -27.5119806652      -13.0427613053  IM1       26              0.0000000000
      6588       296  IM1       H5             16.5113261742      -28.1776141830      -13.2605442572  IM1       26              0.0000000000
      6589       296  IM1       C4             13.6565876632      -26.9094504222      -12.6045910098  IM1       26              0.0000000000
      6590       296  IM1       DC4            13.6502976966      -26.9089575427      -12.6034548014  IM1       26              0.0000000000
      6591       296  IM1       H6             12.5872452169      -26.9134522492      -12.3934258640  IM1       26              0.0000000000
      6592       296  IM1       N2             14.4081140163      -27.9839894972      -12.8406634869  IM1       26              0.0000000000
      6593       296  IM1       DN2            14.3968238299      -27.9950819832      -12.8420472241  IM1       26              0.0000000000
      6594       296  IM1       H7             14.1081763229      -28.9378327229      -12.8555120863  IM1       26              0.0000000000
      6595       296  IM1       LPN21          14.3108263950      -28.2677241403      -12.8461197711  IM1       26              0.0000000000
      6596       297  IM1       C1             -6.3635561737      -10.3400570248       -2.4010556024  IM1       27              0.0000000000
      6597       297  IM1       DC1            -6.3782047086      -10.3190880191       -2.4013371621  IM1       27              0.0000000000
      6598       297  IM1       H1             -6.8952907493      -11.1663922647       -1.8826451353  IM1       27              0.0000000000
      6599       297  IM1       H2             -6.6834056224       -9.3565960396       -1.9950730641  IM1       27              0.0000000000
      6600       297  IM1       H3             -5.2717199253      -10.4909188047       -2.2615732299  IM1       27              0.0000000000
      6601       297  IM1       N1             -6.6539040748      -10.3955062703       -3.7934335457  IM1       27              0.0000000000
      6602       297  IM1       DN1            -6.6418153005      -10.3573089697       -3.7965237585  IM1       27              0.0000000000
      6603       297  IM1       C2             -7.4702697604      -11.2963800117       -4.4319739175  IM1       27              0.0000000000
      6604       297  IM1       DC2            -7.4481709302      -11.2690449612       -4.3973502950  IM1       27              0.0000000000
      6605       297  IM1       H4             -8.0822531422      -12.0379229092       -3.9334967637  IM1       27              0.0000000000
      6606       297  IM1       C3             -7.3278173061      -11.0479631145       -5.7647036175  IM1       27              0.0000000000
      6607       297  IM1       DC3            -7.3109318013      -11.0295510647       -5.7495630769  IM1       27              0.0000000000
      6608       297  IM1       H5             -7.7996925402      -11.5260217093       -6.6142227426  IM1       27              0.0000000000
      6609       297  IM1       C4             -6.0609687672       -9.6296365359       -4.7340800714  IM1       27              0.0000000000
      6610       297  IM1       DC4            -6.0461880078       -9.6087674843       -4.7340428062  IM1       27              0.0000000000
      6611       297  IM1       H6             -5.3661625725       -8.8243211499       -4.4957284807  IM1       27              0.0000000000
      6612       297  IM1       N2             -6.4432100497       -9.9910641862       -5.9511318000  IM1       27              0.0000000000
      6613       297  IM1       DN2            -6.4246332242       -9.9700630364       -5.9574094641  IM1       27              0.0000000000
      6614       297  IM1       H7             -6.1579612801       -9.5875893450       -6.8205230770  IM1       27              0.0000000000
      6615       297  IM1       LPN21          -6.3515595746       -9.8641921459       -6.2070686590  IM1       27              0.0000000000
      6616       298  IM1       C1             19.8286915662       -9.0254366018        9.1050646940  IM1       28              0.0000000000
      6617       298  IM1       DC1            19.7939959751       -9.0328986458        9.1054308026  IM1       28              0.0000000000
      6618       298  IM1       H1             20.1378873904      -10.0868632589        9.2150301236  IM1       28              0.0000000000
      6619       298  IM1       H2             19.3709562718       -8.8674255399        8.1051487457  IM1       28              0.0000000000
      6620       298  IM1       H3             19.1265446663       -8.7679139874        9.9266441689  IM1       28              0.0000000000
      6621       298  IM1       N1             20.9633595924       -8.1836765946        9.2055675903  IM1       28              0.0000000000
      6622       298  IM1       DN1            20.9185483844       -8.1880654181        9.2044078572  IM1       28              0.0000000000
      6623       298  IM1       C2             22.2708433126       -8.5870750609        9.3297839276  IM1       28              0.0000000000
      6624       298  IM1       DC2            22.2064434169       -8.6013012426        9.3409363935  IM1       28              0.0000000000
      6625       298  IM1       H4             22.6088025681       -9.6159875385        9.3263699685  IM1       28              0.0000000000
      6626       298  IM1       C3             23.0021096386       -7.4442483040        9.4445807726  IM1       28              0.0000000000
      6627       298  IM1       DC3            22.9802096466       -7.4816854231        9.4523692561  IM1       28              0.0000000000
      6628       298  IM1       H5             24.0670595112       -7.2993885519        9.5779465144  IM1       28              0.0000000000
      6629       298  IM1       C4             20.9362389333       -6.8329788597        9.2511966903  IM1       28              0.0000000000
      6630       298  IM1       DC4            20.9011745603       -6.8558622513        9.2518785267  IM1       28              0.0000000000
      6631       298  IM1       H6             20.0376464769       -6.2255639216        9.1431287018  IM1       28              0.0000000000
      6632       298  IM1       N2             22.1526473445       -6.3554346455        9.4255926371  IM1       28              0.0000000000
      6633       298  IM1       DN2            22.1343628979       -6.3938015813        9.4357830912  IM1       28              0.0000000000
      6634       298  IM1       H7             22.4107773128       -5.3902290340        9.4673903285  IM1       28              0.0000000000
      6635       298  IM1       LPN21          22.2207071683       -6.0646837929        9.4544336172  IM1       28              0.0000000000
      6636       299  IM1       C1             -5.4062333537      -18.3224610360       -8.4766890341  IM1       29              0.0000000000
      6637       299  IM1       DC1            -5.4339477643      -18.3334394450       -8.4731951147  IM1       29              0.0000000000
      6638       299  IM1       H1             -6.3354612560      -17.7242644495       -8.3625954310  IM1       29              0.0000000000
      6639       299  IM1       H2             -4.6223320474      -17.9296373597       -7.7944066129  IM1       29              0.0000000000
      6640       299  IM1       H3             -5.6121966582      -19.3932774287       -8.2639629888  IM1       29              0.0000000000
      6641       299  IM1       N1             -4.9218756456      -18.2223776243       -9.8167455430  IM1       29              0.0000000000
      6642       299  IM1       DN1            -4.9408349475      -18.2110962893       -9.8287513522  IM1       29              0.0000000000
      6643       299  IM1       C2             -5.4483729110      -17.4638453945      -10.8423760564  IM1       29              0.0000000000
      6644       299  IM1       DC2            -5.4574093689      -17.4634493492      -10.8528634076  IM1       29              0.0000000000
      6645       299  IM1       H4             -6.3179351646      -16.8287037587      -10.7268529438  IM1       29              0.0000000000
      6646       299  IM1       C3             -4.6354106871      -17.6758310364      -11.9141195769  IM1       29              0.0000000000
      6647       299  IM1       DC3            -4.6429460405      -17.6566967466      -11.9433637427  IM1       29              0.0000000000
      6648       299  IM1       H5             -4.6673228771      -17.2660391924      -12.9160882674  IM1       29              0.0000000000
      6649       299  IM1       C4             -3.8315186559      -18.8599586169      -10.2940607092  IM1       29              0.0000000000
      6650       299  IM1       DC4            -3.8610592630      -18.8350298077      -10.3004185716  IM1       29              0.0000000000
      6651       299  IM1       H6             -3.1878191003      -19.4807148866       -9.6708331940  IM1       29              0.0000000000
      6652       299  IM1       N2             -3.6266647747      -18.5511589777      -11.5749861626  IM1       29              0.0000000000
      6653       299  IM1       DN2            -3.6394864169      -18.5371310512      -11.5842847523  IM1       29              0.0000000000
      6654       299  IM1       H7             -2.8712848934      -18.8723363949      -12.1461659081  IM1       29              0.0000000000
      6655       299  IM1       LPN21          -3.4042805503      -18.6549911772      -11.7475090048  IM1       29              0.0000000000
      6656       300  IM1       C1            -11.4517405228      -17.8500101209       28.0762611732  IM1       30              0.0000000000
      6657       300  IM1       DC1           -11.4516882324      -17.8392917845       28.0915063009  IM1       30              0.0000000000
      6658       300  IM1       H1            -11.7197815690      -16.7947656867       28.2974718909  IM1       30              0.0000000000
      6659       300  IM1       H2            -10.7817549096      -18.2489849303       28.8676266901  IM1       30              0.0000000000
      6660       300  IM1       H3            -12.3764889259      -18.4626113476       28.0139624683  IM1       30              0.0000000000
      6661       300  IM1       N1            -10.7700035880      -17.9234568691       26.8218695866  IM1       30              0.0000000000
      6662       300  IM1       DN1           -10.7661759539      -17.9387038957       26.8306405467  IM1       30              0.0000000000
      6663       300  IM1       C2            -10.3797851271      -16.8564831193       26.0457925095  IM1       30              0.0000000000
      6664       300  IM1       DC2           -10.3896882481      -16.8786357807       26.0636818804  IM1       30              0.0000000000
      6665       300  IM1       H4            -10.5907534893      -15.8204106763       26.2801751945  IM1       30              0.0000000000
      6666       300  IM1       C3             -9.7206611125      -17.3892120010       24.9805517597  IM1       30              0.0000000000
      6667       300  IM1       DC3            -9.7182947380      -17.4053968771       24.9815074013  IM1       30              0.0000000000
      6668       300  IM1       H5             -9.2749504734      -16.8975779110       24.1246738783  IM1       30              0.0000000000
      6669       300  IM1       C4            -10.3395765200      -19.0567466355       26.2168564073  IM1       30              0.0000000000
      6670       300  IM1       DC4           -10.3410296436      -19.0537963924       26.2187699209  IM1       30              0.0000000000
      6671       300  IM1       H6            -10.4977355643      -20.0547879986       26.6255117074  IM1       30              0.0000000000
      6672       300  IM1       N2             -9.7007554351      -18.7718000921       25.0849037764  IM1       30              0.0000000000
      6673       300  IM1       DN2            -9.7044458678      -18.7830579711       25.0760027927  IM1       30              0.0000000000
      6674       300  IM1       H7             -9.2856842351      -19.4229063199       24.4494696098  IM1       30              0.0000000000
      6675       300  IM1       LPN21          -9.5803866087      -18.9724368899       24.8971373763  IM1       30              0.0000000000
      6676       301  IM1       C1             17.8078386406        1.7103266432       -5.9285904951  IM1       31              0.0000000000
      6677       301  IM1       DC1            17.7838295878        1.6616138718       -5.9371254234  IM1       31              0.0000000000
      6678       301  IM1       H1             17.8348919518        2.4568932487       -5.1062600126  IM1       31              0.0000000000
      6679       301  IM1       H2             17.4602399873        0.7343207164       -5.5274563440  IM1       31              0.0000000000
      6680       301  IM1       H3             17.1516582876        2.1133436003       -6.7294186158  IM1       31              0.0000000000
      6681       301  IM1       N1             19.1161352338        1.5651822143       -6.4730431635  IM1       31              0.0000000000
      6682       301  IM1       DN1            19.0849522721        1.5230303780       -6.4860663056  IM1       31              0.0000000000
      6683       301  IM1       C2             20.1032357930        2.4935838724       -6.3229168105  IM1       31              0.0000000000
      6684       301  IM1       DC2            20.0513715213        2.4401205730       -6.3609448858  IM1       31              0.0000000000
      6685       301  IM1       H4             19.9817986139        3.3951291174       -5.7352449780  IM1       31              0.0000000000
      6686       301  IM1       C3             21.2010657809        1.9953525492       -6.9482150264  IM1       31              0.0000000000
      6687       301  IM1       DC3            21.1894988102        1.9836474959       -6.9601576516  IM1       31              0.0000000000
      6688       301  IM1       H5             22.2044758430        2.3999271501       -6.9969658160  IM1       31              0.0000000000
      6689       301  IM1       C4             19.6119325920        0.5538198952       -7.2265708592  IM1       31              0.0000000000
      6690       301  IM1       DC4            19.5861223385        0.5291034570       -7.2315594420  IM1       31              0.0000000000
      6691       301  IM1       H6             19.0320597360       -0.3071432728       -7.5591214479  IM1       31              0.0000000000
      6692       301  IM1       N2             20.8839326931        0.7775149486       -7.5314618727  IM1       31              0.0000000000
      6693       301  IM1       DN2            20.8665411671        0.7688341380       -7.5313415504  IM1       31              0.0000000000
      6694       301  IM1       H7             21.4918985445        0.1914427564       -8.0670894570  IM1       31              0.0000000000
      6695       301  IM1       LPN21          21.0585869949        0.5956017679       -7.6939533173  IM1       31              0.0000000000
      6696       302  IM1       C1             12.5993998412       24.4159561870       19.8455877305  IM1       32              0.0000000000
      6697       302  IM1       DC1            12.6133177368       24.4266391726       19.8836130089  IM1       32              0.0000000000
      6698       302  IM1       H1             12.1396656553       25.3269727968       20.2849215606  IM1       32              0.0000000000
      6699       302  IM1       H2             13.6336922746       24.2745315171       20.2257971793  IM1       32              0.0000000000
      6700       302  IM1       H3             11.9694979053       23.5337414934       20.0889840870  IM1       32              0.0000000000
      6701       302  IM1       N1             12.6454003656       24.5512994792       18.4226679900  IM1       32              0.0000000000
      6702       302  IM1       DN1            12.6520788121       24.5344187049       18.4530585875  IM1       32              0.0000000000
      6703       302  IM1       C2             12.3389489138       25.6856781885       17.7065470856  IM1       32              0.0000000000
      6704       302  IM1       DC2            12.3545516023       25.6418655217       17.7252739194  IM1       32              0.0000000000
      6705       302  IM1       H4             12.0468552997       26.6307024578       18.1475680046  IM1       32              0.0000000000
      6706       302  IM1       C3             12.3901898627       25.3301085028       16.3980266537  IM1       32              0.0000000000
      6707       302  IM1       DC3            12.3943954132       25.3373926737       16.3991769420  IM1       32              0.0000000000
      6708       302  IM1       H5             12.1772629577       25.9101804017       15.5086067725  IM1       32              0.0000000000
      6709       302  IM1       C4             12.9336156226       23.5706030172       17.5353217724  IM1       32              0.0000000000
      6710       302  IM1       DC4            12.9302442788       23.5898325555       17.5584412512  IM1       32              0.0000000000
      6711       302  IM1       H6             13.2553513525       22.5695377711       17.8224706764  IM1       32              0.0000000000
      6712       302  IM1       N2             12.7948712375       24.0144276562       16.2894596019  IM1       32              0.0000000000
      6713       302  IM1       DN2            12.7986000159       24.0290693369       16.2987472156  IM1       32              0.0000000000
      6714       302  IM1       H7             12.9482641269       23.4923588483       15.4504633079  IM1       32              0.0000000000
      6715       302  IM1       LPN21          12.8437520228       23.8541759151       16.0406021160  IM1       32              0.0000000000
      6716       303  IM1       C1              9.7405019855       23.0132350238       -8.7568361850  IM1       33              0.0000000000
      6717       303  IM1       DC1             9.7669345558       23.0016616293       -8.7512978712  IM1       33              0.0000000000
      6718       303  IM1       H1             10.3072999535       22.2383122764       -8.1977692832  IM1       33              0.0000000000
      6719       303  IM1       H2              9.9214802094       22.9010793720       -9.8472439036  IM1       33              0.0000000000
      6720       303  IM1       H3              8.6527250213       22.9164937478       -8.5526220776  IM1       33              0.0000000000
      6721       303  IM1       N1             10.1545986423       24.3140921226       -8.3389894849  IM1       33              0.0000000000
      6722       303  IM1       DN1            10.1652886514       24.3160044996       -8.3482016092  IM1       33              0.0000000000
      6723       303  IM1       C2             10.9156316122       24.6108066304       -7.2290411519  IM1       33              0.0000000000
      6724       303  IM1       DC2            10.9181579581       24.5898146255       -7.2487817313  IM1       33              0.0000000000
      6725       303  IM1       H4             11.3573072163       23.8682791351       -6.5759985962  IM1       33              0.0000000000
      6726       303  IM1       C3             10.9753873913       25.9700454439       -7.1750737977  IM1       33              0.0000000000
      6727       303  IM1       DC3            10.9763172731       25.9564104168       -7.1774632318  IM1       33              0.0000000000
      6728       303  IM1       H5             11.5015612901       26.6181025997       -6.4851086167  IM1       33              0.0000000000
      6729       303  IM1       C4              9.7892698792       25.4820514589       -8.9195706220  IM1       33              0.0000000000
      6730       303  IM1       DC4             9.8051974354       25.4713516421       -8.9157712830  IM1       33              0.0000000000
      6731       303  IM1       H6              9.1622481239       25.5387526378       -9.8093619991  IM1       33              0.0000000000
      6732       303  IM1       N2             10.2821957204       26.5151524593       -8.2445175982  IM1       33              0.0000000000
      6733       303  IM1       DN2            10.2838852214       26.5134085247       -8.2430537256  IM1       33              0.0000000000
      6734       303  IM1       H7             10.1759086273       27.4839722209       -8.4683285083  IM1       33              0.0000000000
      6735       303  IM1       LPN21          10.2455114319       26.8040073979       -8.3167470067  IM1       33              0.0000000000
      6736       304  IM1       C1            -19.3618802201       22.8103017057      -11.3141791607  IM1       34              0.0000000000
      6737       304  IM1       DC1           -19.3888808551       22.8253373401      -11.3160614686  IM1       34              0.0000000000
      6738       304  IM1       H1            -20.4597662807       22.9451056657      -11.2102797255  IM1       34              0.0000000000
      6739       304  IM1       H2            -18.8700397440       23.7900447487      -11.4945053004  IM1       34              0.0000000000
      6740       304  IM1       H3            -18.9475157534       22.3405023755      -10.3966217085  IM1       34              0.0000000000
      6741       304  IM1       N1            -19.0753443325       21.9559309645      -12.4222791640  IM1       34              0.0000000000
      6742       304  IM1       DN1           -19.0801072937       21.9611887955      -12.4226344836  IM1       34              0.0000000000
      6743       304  IM1       C2            -19.9725089449       21.4905791424      -13.3609980498  IM1       34              0.0000000000
      6744       304  IM1       DC2           -20.0012127749       21.5116929284      -13.3317188734  IM1       34              0.0000000000
      6745       304  IM1       H4            -21.0466901834       21.6046020460      -13.2833936376  IM1       34              0.0000000000
      6746       304  IM1       C3            -19.2211853127       20.8515852496      -14.3049488296  IM1       34              0.0000000000
      6747       304  IM1       DC3           -19.2372355011       20.9029137022      -14.2898721702  IM1       34              0.0000000000
      6748       304  IM1       H5            -19.5293108417       20.3037005233      -15.1868615152  IM1       34              0.0000000000
      6749       304  IM1       C4            -17.8316075091       21.6109311095      -12.8266687147  IM1       34              0.0000000000
      6750       304  IM1       DC4           -17.8518022403       21.6243935397      -12.8293057145  IM1       34              0.0000000000
      6751       304  IM1       H6            -16.9269277641       21.8555148245      -12.2700419410  IM1       34              0.0000000000
      6752       304  IM1       N2            -17.8753125083       20.9834684465      -13.9949886093  IM1       34              0.0000000000
      6753       304  IM1       DN2           -17.8776928542       21.0070163389      -14.0045989778  IM1       34              0.0000000000
      6754       304  IM1       H7            -17.1011449541       20.5998969808      -14.4985137118  IM1       34              0.0000000000
      6755       304  IM1       LPN21         -17.6365650065       20.8926370185      -14.1523076549  IM1       34              0.0000000000
      6756       305  IM1       C1            -18.2025478844       19.0060223498       -3.7997666330  IM1       35              0.0000000000
      6757       305  IM1       DC1           -18.2507871996       19.0136849597       -3.8114115167  IM1       35              0.0000000000
      6758       305  IM1       H1            -18.8918318431       19.7477868394       -4.2569253213  IM1       35              0.0000000000
      6759       305  IM1       H2            -18.2488871255       19.0690042123       -2.6915216414  IM1       35              0.0000000000
      6760       305  IM1       H3            -18.4641047896       17.9801664140       -4.1367066646  IM1       35              0.0000000000
      6761       305  IM1       N1            -16.8650351168       19.2841756426       -4.2032131794  IM1       35              0.0000000000
      6762       305  IM1       DN1           -16.8934476142       19.2526108428       -4.1772017992  IM1       35              0.0000000000
      6763       305  IM1       C2            -16.4799775307       20.1961213732       -5.1502943563  IM1       35              0.0000000000
      6764       305  IM1       DC2           -16.5315472916       20.1680841042       -5.0986133963  IM1       35              0.0000000000
      6765       305  IM1       H4            -17.1250800053       20.8816917416       -5.6857615048  IM1       35              0.0000000000
      6766       305  IM1       C3            -15.1350909056       20.0430931396       -5.2871013681  IM1       35              0.0000000000
      6767       305  IM1       DC3           -15.1509335340       20.0303968641       -5.2566659969  IM1       35              0.0000000000
      6768       305  IM1       H5            -14.4456143060       20.5645731534       -5.9394583361  IM1       35              0.0000000000
      6769       305  IM1       C4            -15.7576465566       18.6227837283       -3.7905088187  IM1       35              0.0000000000
      6770       305  IM1       DC4           -15.7732530311       18.6169749716       -3.7941887653  IM1       35              0.0000000000
      6771       305  IM1       H6            -15.7609196810       17.8449386366       -3.0269341335  IM1       35              0.0000000000
      6772       305  IM1       N2            -14.6793548754       19.0588286912       -4.4215502127  IM1       35              0.0000000000
      6773       305  IM1       DN2           -14.6734385790       19.0510816082       -4.4108888261  IM1       35              0.0000000000
      6774       305  IM1       H7            -13.7433785141       18.7231099143       -4.3155259042  IM1       35              0.0000000000
      6775       305  IM1       LPN21         -14.3997528616       18.9588666361       -4.3787681904  IM1       35              0.0000000000
      6776       306  IM1       C1            -25.4102578970        0.7858005684       -4.5103365825  IM1       36              0.0000000000
      6777       306  IM1       DC1           -25.3951294351        0.7533758756       -4.5603955008  IM1       36              0.0000000000
      6778       306  IM1       H1            -26.5065759248        0.7516707411       -4.6870932986  IM1       36              0.0000000000
      6779       306  IM1       H2            -25.0079486541        1.7703374963       -4.8315145878  IM1       36              0.0000000000
      6780       306  IM1       H3            -25.2233672889        0.6413461776       -3.4247372869  IM1       36              0.0000000000
      6781       306  IM1       N1            -24.7414381417       -0.2551614451       -5.2213324140  IM1       36              0.0000000000
      6782       306  IM1       DN1           -24.7294431670       -0.2906068867       -5.2481917422  IM1       36              0.0000000000
      6783       306  IM1       C2            -25.3628485110       -1.1979832152       -5.9996075093  IM1       36              0.0000000000
      6784       306  IM1       DC2           -25.3856185459       -1.2055282317       -6.0095134401  IM1       36              0.0000000000
      6785       306  IM1       H4            -26.4245989101       -1.1914706495       -6.2129913843  IM1       36              0.0000000000
      6786       306  IM1       C3            -24.3888589751       -2.0718050153       -6.3698980103  IM1       36              0.0000000000
      6787       306  IM1       DC3           -24.3940106963       -2.0811263768       -6.3658232483  IM1       36              0.0000000000
      6788       306  IM1       H5            -24.4588561578       -2.9718071648       -6.9682169273  IM1       36              0.0000000000
      6789       306  IM1       C4            -23.4227901731       -0.5784886994       -5.1503196365  IM1       36              0.0000000000
      6790       306  IM1       DC4           -23.4316910345       -0.5830065734       -5.1574121024  IM1       36              0.0000000000
      6791       306  IM1       H6            -22.6866954504        0.0014753724       -4.5936274096  IM1       36              0.0000000000
      6792       306  IM1       N2            -23.1728085823       -1.6876507926       -5.8456829715  IM1       36              0.0000000000
      6793       306  IM1       DN2           -23.1738695118       -1.6994146108       -5.8498850407  IM1       36              0.0000000000
      6794       306  IM1       H7            -22.2910318732       -2.1417272750       -5.9732932505  IM1       36              0.0000000000
      6795       306  IM1       LPN21         -22.9053340092       -1.8198791211       -5.8768762704  IM1       36              0.0000000000
      6796       307  IM1       C1            -22.2423735428       -3.9111832272       15.5330694941  IM1       37              0.0000000000
      6797       307  IM1       DC1           -22.2768007723       -3.9093959517       15.5307002259  IM1       37              0.0000000000
      6798       307  IM1       H1            -22.3134928772       -2.8493603357       15.2140159168  IM1       37              0.0000000000
      6799       307  IM1       H2            -21.8071764806       -4.5180774394       14.7105101157  IM1       37              0.0000000000
      6800       307  IM1       H3            -21.5900656569       -3.9834359143       16.4295040825  IM1       37              0.0000000000
      6801       307  IM1       N1            -23.5347538776       -4.4199361305       15.8685743265  IM1       37              0.0000000000
      6802       307  IM1       DN1           -23.5484927900       -4.4366566543       15.8640991721  IM1       37              0.0000000000
      6803       307  IM1       C2            -24.7062892834       -3.6991582515       15.8425575593  IM1       37              0.0000000000
      6804       307  IM1       DC2           -24.6885079947       -3.7168220498       15.8538720118  IM1       37              0.0000000000
      6805       307  IM1       H4            -24.7965911873       -2.6714367913       15.5131290138  IM1       37              0.0000000000
      6806       307  IM1       C3            -25.6765237609       -4.5534989659       16.2530878121  IM1       37              0.0000000000
      6807       307  IM1       DC3           -25.6836822699       -4.5758775466       16.2578906142  IM1       37              0.0000000000
      6808       307  IM1       H5            -26.7415479888       -4.3882619526       16.3594321748  IM1       37              0.0000000000
      6809       307  IM1       C4            -23.8271552179       -5.6796228461       16.2861739838  IM1       37              0.0000000000
      6810       307  IM1       DC4           -23.8382484416       -5.6742768163       16.2749995778  IM1       37              0.0000000000
      6811       307  IM1       H6            -23.0804039357       -6.4625827109       16.4182208430  IM1       37              0.0000000000
      6812       307  IM1       N2            -25.1340639748       -5.8019577035       16.5139647313  IM1       37              0.0000000000
      6813       307  IM1       DN2           -25.1437128039       -5.8143750229       16.5075149989  IM1       37              0.0000000000
      6814       307  IM1       H7            -25.6179925769       -6.6176017795       16.8310417736  IM1       37              0.0000000000
      6815       307  IM1       LPN21         -25.2735286635       -6.0521503127       16.6031457768  IM1       37              0.0000000000
      6816       308  IM1       C1             26.8740446174       11.5189592059       11.5609651807  IM1       38              0.0000000000
      6817       308  IM1       DC1            26.8582731314       11.5057480663       11.5382665889  IM1       38              0.0000000000
      6818       308  IM1       H1             27.6573775803       11.8168177740       10.8315882250  IM1       38              0.0000000000
      6819       308  IM1       H2             26.8941332441       12.2111256989       12.4297706786  IM1       38              0.0000000000
      6820       308  IM1       H3             25.8707024717       11.5445289334       11.0845496794  IM1       38              0.0000000000
      6821       308  IM1       N1             27.1352027436       10.2047719514       12.0460706820  IM1       38              0.0000000000
      6822       308  IM1       DN1            27.1185563091       10.1839970441       12.0491149137  IM1       38              0.0000000000
      6823       308  IM1       C2             28.1216097799        9.3482965644       11.6091383230  IM1       38              0.0000000000
      6824       308  IM1       DC2            28.1023366946        9.3501108281       11.5986590856  IM1       38              0.0000000000
      6825       308  IM1       H4             28.8854835835        9.6304171613       10.8951398761  IM1       38              0.0000000000
      6826       308  IM1       C3             27.9554427982        8.1984391616       12.3204163873  IM1       38              0.0000000000
      6827       308  IM1       DC3            27.9456940318        8.1923028359       12.3191050374  IM1       38              0.0000000000
      6828       308  IM1       H5             28.5406113426        7.2872129023       12.3088629903  IM1       38              0.0000000000
      6829       308  IM1       C4             26.4021099760        9.5557194959       12.9819554252  IM1       38              0.0000000000
      6830       308  IM1       DC4            26.3875474289        9.5505821315       12.9736797017  IM1       38              0.0000000000
      6831       308  IM1       H6             25.5657901849       10.0133214107       13.5104151633  IM1       38              0.0000000000
      6832       308  IM1       N2             26.8602518774        8.3203540016       13.1647044206  IM1       38              0.0000000000
      6833       308  IM1       DN2            26.8476842660        8.3157472579       13.1636028544  IM1       38              0.0000000000
      6834       308  IM1       H7             26.5189378016        7.6415153050       13.8148449635  IM1       38              0.0000000000
      6835       308  IM1       LPN21          26.7439153024        8.1171164634       13.3522152319  IM1       38              0.0000000000
      6836       309  IM1       C1              7.7615603244       18.4812422457       -2.6854911594  IM1       39              0.0000000000
      6837       309  IM1       DC1             7.7801404765       18.4807558741       -2.7272176111  IM1       39              0.0000000000
      6838       309  IM1       H1              8.1714227898       19.4778134549       -2.4149739015  IM1       39              0.0000000000
      6839       309  IM1       H2              6.9081311045       18.2538085032       -2.0115078806  IM1       39              0.0000000000
      6840       309  IM1       H3              7.4064497247       18.4803430014       -3.7382098556  IM1       39              0.0000000000
      6841       309  IM1       N1              8.7681682834       17.4648711786       -2.5241664217  IM1       39              0.0000000000
      6842       309  IM1       DN1             8.7967233171       17.4662074117       -2.5377572357  IM1       39              0.0000000000
      6843       309  IM1       C2             10.1005699716       17.6715529684       -2.2152213587  IM1       39              0.0000000000
      6844       309  IM1       DC2            10.1080370122       17.6717199484       -2.2320918283  IM1       39              0.0000000000
      6845       309  IM1       H4             10.5025628530       18.6285122584       -1.9061588399  IM1       39              0.0000000000
      6846       309  IM1       C3             10.6974513071       16.4519701970       -2.3013819203  IM1       39              0.0000000000
      6847       309  IM1       DC3            10.7280312124       16.4388651953       -2.3193901573  IM1       39              0.0000000000
      6848       309  IM1       H5             11.7182376906       16.1635491325       -2.0829844645  IM1       39              0.0000000000
      6849       309  IM1       C4              8.6102476622       16.1455968666       -2.7994543379  IM1       39              0.0000000000
      6850       309  IM1       DC4             8.6250267801       16.1655970311       -2.8206652203  IM1       39              0.0000000000
      6851       309  IM1       H6              7.6408809847       15.6932541722       -3.0087730696  IM1       39              0.0000000000
      6852       309  IM1       N2              9.7784402472       15.5008367394       -2.7042436032  IM1       39              0.0000000000
      6853       309  IM1       DN2             9.7976093630       15.5002882351       -2.7187085246  IM1       39              0.0000000000
      6854       309  IM1       H7              9.9194586846       14.5148446290       -2.7933130055  IM1       39              0.0000000000
      6855       309  IM1       LPN21           9.8238531977       15.2096570671       -2.7603868339  IM1       39              0.0000000000
      6856       310  IM1       C1             14.7616794489      -13.0190615371       -0.5617727528  IM1       40              0.0000000000
      6857       310  IM1       DC1            14.7447215762      -13.0114533278       -0.5540362195  IM1       40              0.0000000000
      6858       310  IM1       H1             13.7984155190      -13.5722270452       -0.5830218361  IM1       40              0.0000000000
      6859       310  IM1       H2             14.8183163358      -12.3408708491       -1.4399359807  IM1       40              0.0000000000
      6860       310  IM1       H3             14.8450170057      -12.4332367751        0.3785384723  IM1       40              0.0000000000
      6861       310  IM1       N1             15.8424543873      -13.9473100850       -0.6144305515  IM1       40              0.0000000000
      6862       310  IM1       DN1            15.8378703220      -13.9197084511       -0.6133493434  IM1       40              0.0000000000
      6863       310  IM1       C2             15.7335721958      -15.3187711710       -0.6450941204  IM1       40              0.0000000000
      6864       310  IM1       DC2            15.7173490966      -15.2725361442       -0.6417186085  IM1       40              0.0000000000
      6865       310  IM1       H4             14.7989762144      -15.8658716928       -0.6350756059  IM1       40              0.0000000000
      6866       310  IM1       C3             17.0105297917      -15.7937960178       -0.6975333713  IM1       40              0.0000000000
      6867       310  IM1       DC3            16.9954394164      -15.7742047883       -0.6933339405  IM1       40              0.0000000000
      6868       310  IM1       H5             17.3697590146      -16.8146523366       -0.7387127587  IM1       40              0.0000000000
      6869       310  IM1       C4             17.1597474170      -13.6318455143       -0.6423767958  IM1       40              0.0000000000
      6870       310  IM1       DC4            17.1422507346      -13.6302058285       -0.6398681262  IM1       40              0.0000000000
      6871       310  IM1       H6             17.5359107338      -12.6088946059       -0.6292391365  IM1       40              0.0000000000
      6872       310  IM1       N2             17.9037549663      -14.7316272065       -0.6952715277  IM1       40              0.0000000000
      6873       310  IM1       DN2            17.9016872846      -14.7263900907       -0.6961807971  IM1       40              0.0000000000
      6874       310  IM1       H7             18.9021102125      -14.7796967096       -0.7265145491  IM1       40              0.0000000000
      6875       310  IM1       LPN21          18.2035338260      -14.7384618055       -0.7045410214  IM1       40              0.0000000000
      6876       311  IM1       C1            -15.2507982704       15.3786600048       -3.8368669018  IM1       41              0.0000000000
      6877       311  IM1       DC1           -15.2941080815       15.3789114842       -3.8094081870  IM1       41              0.0000000000
      6878       311  IM1       H1            -14.5058013358       15.7329007496       -3.0926800551  IM1       41              0.0000000000
      6879       311  IM1       H2            -15.2037040461       16.0515893404       -4.7196291820  IM1       41              0.0000000000
      6880       311  IM1       H3            -14.9851694031       14.3469725779       -4.1521181662  IM1       41              0.0000000000
      6881       311  IM1       N1            -16.5821602627       15.3972255675       -3.2773431921  IM1       41              0.0000000000
      6882       311  IM1       DN1           -16.6291889364       15.3979601773       -3.2746386448  IM1       41              0.0000000000
      6883       311  IM1       C2            -16.9318569038       15.8881890585       -2.0368029223  IM1       41              0.0000000000
      6884       311  IM1       DC2           -16.9472103593       15.8870638501       -2.0502012141  IM1       41              0.0000000000
      6885       311  IM1       H4            -16.2086209644       16.2414749387       -1.3122286591  IM1       41              0.0000000000
      6886       311  IM1       C3            -18.2916668212       15.8410944011       -1.9777012229  IM1       41              0.0000000000
      6887       311  IM1       DC3           -18.3214244893       15.8375668858       -1.9955160057  IM1       41              0.0000000000
      6888       311  IM1       H5            -18.9529109588       16.1468038619       -1.1763355660  IM1       41              0.0000000000
      6889       311  IM1       C4            -17.7316631348       15.0702702375       -3.9218549996  IM1       41              0.0000000000
      6890       311  IM1       DC4           -17.7581217718       15.0712435332       -3.9304246322  IM1       41              0.0000000000
      6891       311  IM1       H6            -17.7478064051       14.6355601676       -4.9212881144  IM1       41              0.0000000000
      6892       311  IM1       N2            -18.8007472644       15.3343467697       -3.1677981015  IM1       41              0.0000000000
      6893       311  IM1       DN2           -18.8334677265       15.3322907494       -3.1866530925  IM1       41              0.0000000000
      6894       311  IM1       H7            -19.7615766443       15.1852616297       -3.4014228511  IM1       41              0.0000000000
      6895       311  IM1       LPN21         -19.0867724758       15.2903445311       -3.2468764262  IM1       41              0.0000000000
      6896       312  IM1       C1             28.3882915339      -11.9309738217      -24.6515329174  IM1       42              0.0000000000
      6897       312  IM1       DC1            28.3713374558      -11.9204022416      -24.6656793997  IM1       42              0.0000000000
      6898       312  IM1       H1             29.0183147030      -11.4095614203      -23.8995216703  IM1       42              0.0000000000
      6899       312  IM1       H2             28.9366992511      -12.8047458375      -25.0639555641  IM1       42              0.0000000000
      6900       312  IM1       H3             27.4550235347      -12.2801994385      -24.1602353393  IM1       42              0.0000000000
      6901       312  IM1       N1             28.0659369456      -11.0337187792      -25.7310745993  IM1       42              0.0000000000
      6902       312  IM1       DN1            28.0498505209      -11.0206024053      -25.7545696234  IM1       42              0.0000000000
      6903       312  IM1       C2             28.4224459735       -9.7036474416      -25.8566005400  IM1       42              0.0000000000
      6904       312  IM1       DC2            28.4070008441       -9.7035313225      -25.8782236802  IM1       42              0.0000000000
      6905       312  IM1       H4             29.0736531907       -9.1985941208      -25.1539346839  IM1       42              0.0000000000
      6906       312  IM1       C3             27.7512429037       -9.2366216988      -26.9445704278  IM1       42              0.0000000000
      6907       312  IM1       DC3            27.7404566037       -9.2285290998      -26.9751732452  IM1       42              0.0000000000
      6908       312  IM1       H5             27.7026113815       -8.2334810210      -27.3498268349  IM1       42              0.0000000000
      6909       312  IM1       C4             27.1999749902      -11.3223560989      -26.7314050575  IM1       42              0.0000000000
      6910       312  IM1       DC4            27.1999971026      -11.3235281016      -26.7385466160  IM1       42              0.0000000000
      6911       312  IM1       H6             26.7376679743      -12.3031678324      -26.8426730507  IM1       42              0.0000000000
      6912       312  IM1       N2             26.9917935924      -10.2546534606      -27.5042873665  IM1       42              0.0000000000
      6913       312  IM1       DN2            26.9852184659      -10.2564883582      -27.5204772987  IM1       42              0.0000000000
      6914       312  IM1       H7             26.3606094525      -10.1900823031      -28.2772279510  IM1       42              0.0000000000
      6915       312  IM1       LPN21          26.8155927704      -10.2456597411      -27.7469236855  IM1       42              0.0000000000
      6916       313  IM1       C1            -14.0711417828       24.4598027689       22.9703037211  IM1       43              0.0000000000
      6917       313  IM1       DC1           -14.0694085259       24.4363075560       22.9861650114  IM1       43              0.0000000000
      6918       313  IM1       H1            -13.4154650316       24.6077751478       22.0857059743  IM1       43              0.0000000000
      6919       313  IM1       H2            -14.2314866203       25.4438836551       23.4604009993  IM1       43              0.0000000000
      6920       313  IM1       H3            -15.0408763268       24.0329949328       22.6359820419  IM1       43              0.0000000000
      6921       313  IM1       N1            -13.4423071144       23.5667889952       23.9031244232  IM1       43              0.0000000000
      6922       313  IM1       DN1           -13.4569137438       23.5502949074       23.9347470392  IM1       43              0.0000000000
      6923       313  IM1       C2            -12.2293617770       22.9394385799       23.7329061391  IM1       43              0.0000000000
      6924       313  IM1       DC2           -12.2574648824       22.9403487571       23.7389697925  IM1       43              0.0000000000
      6925       313  IM1       H4            -11.5880855959       23.0927366383       22.8737475010  IM1       43              0.0000000000
      6926       313  IM1       C3            -12.0312459128       22.1862504266       24.8503677549  IM1       43              0.0000000000
      6927       313  IM1       DC3           -12.0477191454       22.1835347238       24.8661202612  IM1       43              0.0000000000
      6928       313  IM1       H5            -11.1912136417       21.5569951092       25.1173369100  IM1       43              0.0000000000
      6929       313  IM1       C4            -13.9402555188       23.1757580418       25.1018924882  IM1       43              0.0000000000
      6930       313  IM1       DC4           -13.9606868444       23.1767199232       25.1132325474  IM1       43              0.0000000000
      6931       313  IM1       H6            -14.8897042319       23.5276848034       25.5053707354  IM1       43              0.0000000000
      6932       313  IM1       N2            -13.1127960002       22.3282232138       25.7078677580  IM1       43              0.0000000000
      6933       313  IM1       DN2           -13.1250658737       22.3254440227       25.7167153885  IM1       43              0.0000000000
      6934       313  IM1       H7            -13.2353401101       21.9008299820       26.6035897944  IM1       43              0.0000000000
      6935       313  IM1       LPN21         -13.1591967142       22.1995293808       25.9748600258  IM1       43              0.0000000000
      6936       314  IM1       C1              8.5260545269      -25.0099278647       10.0474796817  IM1       44              0.0000000000
      6937       314  IM1       DC1             8.5304244280      -24.9797779572       10.0712770362  IM1       44              0.0000000000
      6938       314  IM1       H1              7.8461945614      -25.1035084662       10.9211810596  IM1       44              0.0000000000
      6939       314  IM1       H2              8.5682372260      -23.9538030131        9.7052196672  IM1       44              0.0000000000
      6940       314  IM1       H3              9.5413071356      -25.3686633211       10.3211437324  IM1       44              0.0000000000
      6941       314  IM1       N1              8.0376029795      -25.8100115308        8.9699624662  IM1       44              0.0000000000
      6942       314  IM1       DN1             8.0733281291      -25.7862022618        8.9858110491  IM1       44              0.0000000000
      6943       314  IM1       C2              6.8188097751      -26.4424342985        8.9174833547  IM1       44              0.0000000000
      6944       314  IM1       DC2             6.8733238084      -26.4172160276        8.9447468383  IM1       44              0.0000000000
      6945       314  IM1       H4              6.0923730004      -26.4626018118        9.7204602434  IM1       44              0.0000000000
      6946       314  IM1       C3              6.7236148531      -26.9779737949        7.6660583837  IM1       44              0.0000000000
      6947       314  IM1       DC3             6.7654855690      -26.9931670674        7.6931425272  IM1       44              0.0000000000
      6948       314  IM1       H5              5.9120524644      -27.5270607852        7.2048003579  IM1       44              0.0000000000
      6949       314  IM1       C4              8.6485546795      -25.9857579711        7.7727195690  IM1       44              0.0000000000
      6950       314  IM1       DC4             8.6483123467      -25.9816129289        7.7901987824  IM1       44              0.0000000000
      6951       314  IM1       H6              9.5941573031      -25.5149355418        7.5039037988  IM1       44              0.0000000000
      6952       314  IM1       N2              7.8910294135      -26.7173732416        6.9604546043  IM1       44              0.0000000000
      6953       314  IM1       DN2             7.9040195120      -26.7195279024        6.9614262424  IM1       44              0.0000000000
      6954       314  IM1       H7              8.0845809069      -26.9432063520        6.0057100177  IM1       44              0.0000000000
      6955       314  IM1       LPN21           7.9659967712      -26.8034427724        6.6830164470  IM1       44              0.0000000000
      6956       315  IM1       C1             -7.6437251143        5.1083499482        3.1676563090  IM1       45              0.0000000000
      6957       315  IM1       DC1            -7.6176705052        5.0926106670        3.1650522229  IM1       45              0.0000000000
      6958       315  IM1       H1             -6.7535310057        5.4913414980        3.7109729048  IM1       45              0.0000000000
      6959       315  IM1       H2             -7.6658075355        5.5317620143        2.1407407385  IM1       45              0.0000000000
      6960       315  IM1       H3             -7.6165257071        3.9982756214        3.1313770980  IM1       45              0.0000000000
      6961       315  IM1       N1             -8.8333162937        5.5236012798        3.8420730673  IM1       45              0.0000000000
      6962       315  IM1       DN1            -8.8313138305        5.4872244817        3.8086814489  IM1       45              0.0000000000
      6963       315  IM1       C2             -8.9051261281        6.3934672371        4.8987965455  IM1       45              0.0000000000
      6964       315  IM1       DC2            -8.8813275655        6.3418899832        4.8518667096  IM1       45              0.0000000000
      6965       315  IM1       H4             -8.0544325592        6.8462466641        5.3929627546  IM1       45              0.0000000000
      6966       315  IM1       C3            -10.2315808120        6.5031694937        5.2076006156  IM1       45              0.0000000000
      6967       315  IM1       DC3           -10.2082376112        6.4760424084        5.1857489148  IM1       45              0.0000000000
      6968       315  IM1       H5            -10.7083071878        7.0438246341        6.0158784030  IM1       45              0.0000000000
      6969       315  IM1       C4            -10.0956257930        5.1350837908        3.5391133877  IM1       45              0.0000000000
      6970       315  IM1       DC4           -10.0889178391        5.1119911466        3.5325093416  IM1       45              0.0000000000
      6971       315  IM1       H6            -10.3388093083        4.4636628742        2.7156112744  IM1       45              0.0000000000
      6972       315  IM1       N2            -10.9718775678        5.6781997870        4.3693892665  IM1       45              0.0000000000
      6973       315  IM1       DN2           -10.9693561711        5.6592461681        4.3598957780  IM1       45              0.0000000000
      6974       315  IM1       H7            -11.9624849637        5.5418340272        4.3794573639  IM1       45              0.0000000000
      6975       315  IM1       LPN21         -11.2674096431        5.6266384770        4.3678980474  IM1       45              0.0000000000
      6976       316  IM1       C1             -1.3038425117       12.0302788924       -3.0197482802  IM1       46              0.0000000000
      6977       316  IM1       DC1            -1.2901546354       12.0100474396       -3.0150373815  IM1       46              0.0000000000
      6978       316  IM1       H1             -1.8417932815       11.1703133453       -2.5665493958  IM1       46              0.0000000000
      6979       316  IM1       H2             -0.2411892362       12.0213386109       -2.6956972234  IM1       46              0.0000000000
      6980       316  IM1       H3             -1.3621793351       11.9741362388       -4.1277942253  IM1       46              0.0000000000
      6981       316  IM1       N1             -1.9098655074       13.2561696701       -2.6112916898  IM1       46              0.0000000000
      6982       316  IM1       DN1            -1.8855760030       13.2438070860       -2.6230514450  IM1       46              0.0000000000
      6983       316  IM1       C2             -3.0139306551       13.3953860710       -1.8033375151  IM1       46              0.0000000000
      6984       316  IM1       DC2            -2.9674065583       13.3752206500       -1.8164571904  IM1       46              0.0000000000
      6985       316  IM1       H4             -3.6055968521       12.5739877467       -1.4184675290  IM1       46              0.0000000000
      6986       316  IM1       C3             -3.2038645904       14.7380861337       -1.6599776669  IM1       46              0.0000000000
      6987       316  IM1       DC3            -3.1863963136       14.7203314242       -1.6605436993  IM1       46              0.0000000000
      6988       316  IM1       H5             -3.9732963341       15.2765712758       -1.1206284807  IM1       46              0.0000000000
      6989       316  IM1       C4             -1.4655740505       14.4978635519       -2.9288476028  IM1       46              0.0000000000
      6990       316  IM1       DC4            -1.4596152840       14.4804230714       -2.9194680904  IM1       46              0.0000000000
      6991       316  IM1       H6             -0.6102702272       14.6812263394       -3.5791809466  IM1       46              0.0000000000
      6992       316  IM1       N2             -2.2175582785       15.4267232709       -2.3524754999  IM1       46              0.0000000000
      6993       316  IM1       DN2            -2.2088479910       15.4241469232       -2.3498566087  IM1       46              0.0000000000
      6994       316  IM1       H7             -2.1148061087       16.4177029931       -2.4385056212  IM1       46              0.0000000000
      6995       316  IM1       LPN21          -2.1746135586       15.7228691503       -2.3737679674  IM1       46              0.0000000000
      6996       317  IM1       C1            -11.7826851574        1.8334417643        4.9342607775  IM1       47              0.0000000000
      6997       317  IM1       DC1           -11.7945075342        1.7919852929        4.8797854983  IM1       47              0.0000000000
      6998       317  IM1       H1            -12.5165281696        1.0465878188        5.2111295225  IM1       47              0.0000000000
      6999       317  IM1       H2            -12.2635884272        2.7764779770        4.5970134671  IM1       47              0.0000000000
      7000       317  IM1       H3            -11.2081085756        2.0430360731        5.8617590135  IM1       47              0.0000000000
      7001       317  IM1       N1            -10.8600333266        1.3651876419        3.9536498278  IM1       47              0.0000000000
      7002       317  IM1       DN1           -10.8434169724        1.3347811509        3.9189286501  IM1       47              0.0000000000
      7003       317  IM1       C2            -10.9272305527        0.1692988303        3.2705605510  IM1       47              0.0000000000
      7004       317  IM1       DC2           -10.9391583148        0.1477989204        3.2557176222  IM1       47              0.0000000000
      7005       317  IM1       H4            -11.7162604926       -0.5572272590        3.4204958553  IM1       47              0.0000000000
      7006       317  IM1       C3             -9.7939472971        0.1072048096        2.5180349228  IM1       47              0.0000000000
      7007       317  IM1       DC3            -9.7786154291        0.0877794338        2.5052244842  IM1       47              0.0000000000
      7008       317  IM1       H5             -9.4371426794       -0.6760042504        1.8606438420  IM1       47              0.0000000000
      7009       317  IM1       C4             -9.7029113484        1.9796299625        3.6019446972  IM1       47              0.0000000000
      7010       317  IM1       DC4            -9.7063785331        1.9562287287        3.5953850134  IM1       47              0.0000000000
      7011       317  IM1       H6             -9.3647642075        2.9085747791        4.0610939528  IM1       47              0.0000000000
      7012       317  IM1       N2             -9.0233718708        1.2370670634        2.7233710462  IM1       47              0.0000000000
      7013       317  IM1       DN2            -9.0152004849        1.2224745517        2.7136469559  IM1       47              0.0000000000
      7014       317  IM1       H7             -8.1346621157        1.4555831070        2.3203255027  IM1       47              0.0000000000
      7015       317  IM1       LPN21          -8.7589155082        1.3077432759        2.6006204646  IM1       47              0.0000000000
      7016       318  IM1       C1             28.8772157846      -20.8573876241        5.7925354442  IM1       48              0.0000000000
      7017       318  IM1       DC1            28.8643456312      -20.8536723707        5.7832204664  IM1       48              0.0000000000
      7018       318  IM1       H1             28.3729782278      -19.8674190086        5.7872795666  IM1       48              0.0000000000
      7019       318  IM1       H2             29.9551396364      -20.7212069468        6.0246043878  IM1       48              0.0000000000
      7020       318  IM1       H3             28.4028088686      -21.5157172609        6.5513906146  IM1       48              0.0000000000
      7021       318  IM1       N1             28.7592491553      -21.4750772212        4.5074524893  IM1       48              0.0000000000
      7022       318  IM1       DN1            28.7542582220      -21.4792873090        4.4981555723  IM1       48              0.0000000000
      7023       318  IM1       C2             28.0821191054      -20.9680051027        3.4186095542  IM1       48              0.0000000000
      7024       318  IM1       DC2            28.0801751714      -20.9582834967        3.4290903797  IM1       48              0.0000000000
      7025       318  IM1       H4             27.5739966338      -20.0116078881        3.4208280408  IM1       48              0.0000000000
      7026       318  IM1       C3             28.2232494033      -21.8915418186        2.4282745495  IM1       48              0.0000000000
      7027       318  IM1       DC3            28.2159207672      -21.8846099165        2.4251286785  IM1       48              0.0000000000
      7028       318  IM1       H5             27.8493963846      -21.8924871638        1.4118484446  IM1       48              0.0000000000
      7029       318  IM1       C4             29.2788800059      -22.6749601206        4.1515581599  IM1       48              0.0000000000
      7030       318  IM1       DC4            29.2655778044      -22.6631336379        4.1590410844  IM1       48              0.0000000000
      7031       318  IM1       H6             29.8621441331      -23.3046081660        4.8234556947  IM1       48              0.0000000000
      7032       318  IM1       N2             28.9661475493      -22.9615970807        2.8901949165  IM1       48              0.0000000000
      7033       318  IM1       DN2            28.9545141607      -22.9507386524        2.8925378028  IM1       48              0.0000000000
      7034       318  IM1       H7             29.2180422027      -23.7883859344        2.3872344060  IM1       48              0.0000000000
      7035       318  IM1       LPN21          29.0452272063      -23.2109434817        2.7433181649  IM1       48              0.0000000000
      7036       319  IM1       C1            -13.6495310290      -28.1575863917        4.2483379576  IM1       49              0.0000000000
      7037       319  IM1       DC1           -13.6548904291      -28.1588561258        4.2470692988  IM1       49              0.0000000000
      7038       319  IM1       H1            -13.9646065447      -29.1614601166        4.6051095409  IM1       49              0.0000000000
      7039       319  IM1       H2            -12.7327146228      -27.8431660719        4.7913927800  IM1       49              0.0000000000
      7040       319  IM1       H3            -13.4615981680      -28.1951976093        3.1539944850  IM1       49              0.0000000000
      7041       319  IM1       N1            -14.6794291701      -27.2028743814        4.5047281793  IM1       49              0.0000000000
      7042       319  IM1       DN1           -14.6720991078      -27.1894208858        4.4929560531  IM1       49              0.0000000000
      7043       319  IM1       C2            -15.8723517704      -27.4624212123        5.1342843514  IM1       49              0.0000000000
      7044       319  IM1       DC2           -15.8461504888      -27.4766629035        5.1137587252  IM1       49              0.0000000000
      7045       319  IM1       H4            -16.1565108236      -28.4265681540        5.5374757542  IM1       49              0.0000000000
      7046       319  IM1       C3            -16.5330321868      -26.2758575369        5.1735493037  IM1       49              0.0000000000
      7047       319  IM1       DC3           -16.5321991446      -26.2959811714        5.1440286235  IM1       49              0.0000000000
      7048       319  IM1       H5            -17.4943611722      -26.0591185256        5.6227260882  IM1       49              0.0000000000
      7049       319  IM1       C4            -14.6580807690      -25.8877320414        4.1716947727  IM1       49              0.0000000000
      7050       319  IM1       DC4           -14.6506944409      -25.8920575940        4.1631143441  IM1       49              0.0000000000
      7051       319  IM1       H6            -13.8116814890      -25.4008930948        3.6872403384  IM1       49              0.0000000000
      7052       319  IM1       N2            -15.7854570588      -25.2922255124        4.5398837843  IM1       49              0.0000000000
      7053       319  IM1       DN2           -15.7828567684      -25.2931437424        4.5263923176  IM1       49              0.0000000000
      7054       319  IM1       H7            -16.0172532715      -24.3244617090        4.4413762384  IM1       49              0.0000000000
      7055       319  IM1       LPN21         -15.8546452134      -25.0043562412        4.4914659988  IM1       49              0.0000000000
      7056       320  IM1       C1              8.3460992925      -15.3091745127      -12.8717787672  IM1       50              0.0000000000
      7057       320  IM1       DC1             8.3323659613      -15.3011886054      -12.8812064540  IM1       50              0.0000000000
      7058       320  IM1       H1              8.4575432558      -14.6690327501      -13.7729556459  IM1       50              0.0000000000
      7059       320  IM1       H2              8.0423407393      -14.6903163044      -12.0005346797  IM1       50              0.0000000000
      7060       320  IM1       H3              7.5878546006      -16.0979360541      -13.0647586092  IM1       50              0.0000000000
      7061       320  IM1       N1              9.5918113080      -15.9361702527      -12.5659253429  IM1       50              0.0000000000
      7062       320  IM1       DN1             9.5643072904      -15.9409349001      -12.5600900101  IM1       50              0.0000000000
      7063       320  IM1       C2             10.7820973165      -15.7502631833      -13.2314626753  IM1       50              0.0000000000
      7064       320  IM1       DC2            10.7307310387      -15.7295591332      -13.2305289882  IM1       50              0.0000000000
      7065       320  IM1       H4             10.9104151180      -15.1345947469      -14.1131519166  IM1       50              0.0000000000
      7066       320  IM1       C3             11.6997329639      -16.5140096126      -12.5756032597  IM1       50              0.0000000000
      7067       320  IM1       DC3            11.6544962256      -16.5005434972      -12.5874261459  IM1       50              0.0000000000
      7068       320  IM1       H5             12.7534876492      -16.6625110571      -12.7766937492  IM1       50              0.0000000000
      7069       320  IM1       C4              9.8156083990      -16.7938317301      -11.5412173285  IM1       50              0.0000000000
      7070       320  IM1       DC4             9.8054991434      -16.7857148827      -11.5583209850  IM1       50              0.0000000000
      7071       320  IM1       H6              9.0475846321      -17.1178584715      -10.8389024660  IM1       50              0.0000000000
      7072       320  IM1       N2             11.0856655815      -17.1720392448      -11.5188197292  IM1       50              0.0000000000
      7073       320  IM1       DN2            11.0747681605      -17.1676561837      -11.5223240097  IM1       50              0.0000000000
      7074       320  IM1       H7             11.5130156506      -17.8031347008      -10.8714477774  IM1       50              0.0000000000
      7075       320  IM1       LPN21          11.2060851581      -17.3623392905      -11.3206152434  IM1       50              0.0000000000
      7076       321  IM1       C1            -11.0781124088      -21.7152804256       18.4589315427  IM1       51              0.0000000000
      7077       321  IM1       DC1           -11.0815435145      -21.7122335032       18.4407091971  IM1       51              0.0000000000
      7078       321  IM1       H1            -10.8194519642      -21.5871842072       17.3860815377  IM1       51              0.0000000000
      7079       321  IM1       H2            -10.2992291649      -21.2350865479       19.0890709977  IM1       51              0.0000000000
      7080       321  IM1       H3            -12.0720229780      -21.2636587684       18.6650884229  IM1       51              0.0000000000
      7081       321  IM1       N1            -11.1401231808      -23.1034747401       18.7869278045  IM1       51              0.0000000000
      7082       321  IM1       DN1           -11.1401271774      -23.1000708971       18.7901162038  IM1       51              0.0000000000
      7083       321  IM1       C2            -10.8406386517      -24.1420805404       17.9374123725  IM1       51              0.0000000000
      7084       321  IM1       DC2           -10.8494629867      -24.1180486242       17.9320100560  IM1       51              0.0000000000
      7085       321  IM1       H4            -10.5092528787      -24.0097430889       16.9148864469  IM1       51              0.0000000000
      7086       321  IM1       C3            -10.9961376563      -25.2806731726       18.6673502397  IM1       51              0.0000000000
      7087       321  IM1       DC3           -10.9928999144      -25.2702317992       18.6544253230  IM1       51              0.0000000000
      7088       321  IM1       H5            -10.8502676093      -26.3162775370       18.3860416373  IM1       51              0.0000000000
      7089       321  IM1       C4            -11.4470338484      -23.6319129529       19.9964708629  IM1       51              0.0000000000
      7090       321  IM1       DC4           -11.4444505974      -23.6218490840       19.9824710885  IM1       51              0.0000000000
      7091       321  IM1       H6            -11.6957787720      -23.0366271971       20.8750269691  IM1       51              0.0000000000
      7092       321  IM1       N2            -11.3661115997      -24.9575734440       19.9592638127  IM1       51              0.0000000000
      7093       321  IM1       DN2           -11.3614255731      -24.9537898140       19.9502008103  IM1       51              0.0000000000
      7094       321  IM1       H7            -11.5316977360      -25.5895159040       20.7163833269  IM1       51              0.0000000000
      7095       321  IM1       LPN21         -11.4192611795      -25.1418422717       20.1899586790  IM1       51              0.0000000000
      7096       322  IM1       C1            -14.5741375120        5.5155032902      -24.3145118085  IM1       52              0.0000000000
      7097       322  IM1       DC1           -14.5647564741        5.5324736757      -24.2908458016  IM1       52              0.0000000000
      7098       322  IM1       H1            -14.6735436975        6.6154084784      -24.1934829388  IM1       52              0.0000000000
      7099       322  IM1       H2            -15.4834930971        5.0110344329      -23.9234816385  IM1       52              0.0000000000
      7100       322  IM1       H3            -14.5047082332        5.2805283374      -25.3981572060  IM1       52              0.0000000000
      7101       322  IM1       N1            -13.3832402804        5.0385621030      -23.6420711201  IM1       52              0.0000000000
      7102       322  IM1       DN1           -13.3732799223        5.0299684695      -23.6191071569  IM1       52              0.0000000000
      7103       322  IM1       C2            -12.3051251342        5.8308742644      -23.3162792860  IM1       52              0.0000000000
      7104       322  IM1       DC2           -12.3108794077        5.8182017426      -23.3094548733  IM1       52              0.0000000000
      7105       322  IM1       H4            -12.3118605540        6.9110301070      -23.3944265176  IM1       52              0.0000000000
      7106       322  IM1       C3            -11.3048806994        4.9792005112      -22.9545422664  IM1       52              0.0000000000
      7107       322  IM1       DC3           -11.2928303195        4.9613567860      -22.9472204173  IM1       52              0.0000000000
      7108       322  IM1       H5            -10.2851705588        5.2029255658      -22.6663976341  IM1       52              0.0000000000
      7109       322  IM1       C4            -12.9993161423        3.7421096456      -23.4716130667  IM1       52              0.0000000000
      7110       322  IM1       DC4           -12.9897186227        3.7382295199      -23.4550436112  IM1       52              0.0000000000
      7111       322  IM1       H6            -13.6410777564        2.8971233856      -23.7210930317  IM1       52              0.0000000000
      7112       322  IM1       N2            -11.7415404360        3.6642992253      -23.0369717080  IM1       52              0.0000000000
      7113       322  IM1       DN2           -11.7305944735        3.6428614957      -23.0300683813  IM1       52              0.0000000000
      7114       322  IM1       H7            -11.2076976237        2.8343232665      -22.8752566513  IM1       52              0.0000000000
      7115       322  IM1       LPN21         -11.5927101047        3.4117653238      -22.9731268878  IM1       52              0.0000000000
      7116       323  IM1       C1              0.3251050242       19.8134463468      -17.2531223396  IM1       53              0.0000000000
      7117       323  IM1       DC1             0.3476225701       19.8638099665      -17.2562253194  IM1       53              0.0000000000
      7118       323  IM1       H1             -0.7552102977       19.9025237605      -17.0095961164  IM1       53              0.0000000000
      7119       323  IM1       H2              0.9000492972       19.6545890326      -16.3158259955  IM1       53              0.0000000000
      7120       323  IM1       H3              0.4541248235       18.9395033930      -17.9268423151  IM1       53              0.0000000000
      7121       323  IM1       N1              0.7926962933       20.9962794415      -17.9258613406  IM1       53              0.0000000000
      7122       323  IM1       DN1             0.8161030501       21.0336189356      -17.9387506930  IM1       53              0.0000000000
      7123       323  IM1       C2              0.0625752701       22.1356754966      -18.1936536985  IM1       53              0.0000000000
      7124       323  IM1       DC2             0.0860175784       22.1558942384      -18.1783284653  IM1       53              0.0000000000
      7125       323  IM1       H4             -0.9974101041       22.2257588908      -17.9906635789  IM1       53              0.0000000000
      7126       323  IM1       C3              0.9072817090       22.9923142840      -18.8234694038  IM1       53              0.0000000000
      7127       323  IM1       DC3             0.9454923170       23.0015920594      -18.8467500617  IM1       53              0.0000000000
      7128       323  IM1       H5              0.7152878739       23.9831855839      -19.2161543085  IM1       53              0.0000000000
      7129       323  IM1       C4              2.0475078969       21.1985574751      -18.3984039351  IM1       53              0.0000000000
      7130       323  IM1       DC4             2.0586716179       21.2047685867      -18.3981717191  IM1       53              0.0000000000
      7131       323  IM1       H6              2.8325592942       20.4458991704      -18.3256043474  IM1       53              0.0000000000
      7132       323  IM1       N2              2.1567075596       22.4084864831      -18.9580467341  IM1       53              0.0000000000
      7133       323  IM1       DN2             2.1749761296       22.4216040025      -18.9787782055  IM1       53              0.0000000000
      7134       323  IM1       H7              2.9736194254       22.8012802551      -19.3803831614  IM1       53              0.0000000000
      7135       323  IM1       LPN21           2.4038785960       22.5223353109      -19.0843199425  IM1       53              0.0000000000
      7136       324  IM1       C1             11.4057519086       10.0806298384       -4.0994685319  IM1       54              0.0000000000
      7137       324  IM1       DC1            11.4100881363       10.0669447287       -4.1043904127  IM1       54              0.0000000000
      7138       324  IM1       H1             12.4999200917        9.8996216174       -4.1654458991  IM1       54              0.0000000000
      7139       324  IM1       H2             11.2246143899       11.1330827030       -3.7931138880  IM1       54              0.0000000000
      7140       324  IM1       H3             10.9384110034        9.8896680034       -5.0891387072  IM1       54              0.0000000000
      7141       324  IM1       N1             10.8220514086        9.2072318549       -3.1226389121  IM1       54              0.0000000000
      7142       324  IM1       DN1            10.8225608358        9.1966549016       -3.1303906485  IM1       54              0.0000000000
      7143       324  IM1       C2             11.4587176673        8.1479857049       -2.5110175862  IM1       54              0.0000000000
      7144       324  IM1       DC2            11.4525927162        8.1512490609       -2.5277935173  IM1       54              0.0000000000
      7145       324  IM1       H4             12.5094525792        7.9179642579       -2.6372526007  IM1       54              0.0000000000
      7146       324  IM1       C3             10.5319615978        7.5739353775       -1.6976562091  IM1       54              0.0000000000
      7147       324  IM1       DC3            10.5350188120        7.5519632159       -1.7107302947  IM1       54              0.0000000000
      7148       324  IM1       H5             10.6197065432        6.7436849876       -1.0078199135  IM1       54              0.0000000000
      7149       324  IM1       C4              9.5403728694        9.2318648280       -2.6772160197  IM1       54              0.0000000000
      7150       324  IM1       DC4             9.5609920609        9.2104908977       -2.6988410291  IM1       54              0.0000000000
      7151       324  IM1       H6              8.8017502688        9.9707724857       -2.9879444016  IM1       54              0.0000000000
      7152       324  IM1       N2              9.3276313359        8.2348523469       -1.8191712514  IM1       54              0.0000000000
      7153       324  IM1       DN2             9.3350316689        8.2147334973       -1.8353199270  IM1       54              0.0000000000
      7154       324  IM1       H7              8.4687824129        8.0300488919       -1.3496671807  IM1       54              0.0000000000
      7155       324  IM1       LPN21           9.0671229650        8.1731117944       -1.6838069545  IM1       54              0.0000000000
      7156       325  IM1       C1              6.5101894819        9.9643228211        1.2843222711  IM1       55              0.0000000000
      7157       325  IM1       DC1             6.5228764447        9.9805790877        1.2636562476  IM1       55              0.0000000000
      7158       325  IM1       H1              7.4645148469       10.5094980638        1.4467046967  IM1       55              0.0000000000
      7159       325  IM1       H2              6.5519041158        9.4181859633        0.3177223426  IM1       55              0.0000000000
      7160       325  IM1       H3              6.3451906323        9.2503613564        2.1194003560  IM1       55              0.0000000000
      7161       325  IM1       N1              5.4319949830       10.8960698609        1.2494448781  IM1       55              0.0000000000
      7162       325  IM1       DN1             5.4241017713       10.8975050073        1.2439411495  IM1       55              0.0000000000
      7163       325  IM1       C2              5.5418263053       12.2685281171        1.2905951950  IM1       55              0.0000000000
      7164       325  IM1       DC2             5.5732680910       12.2544039296        1.2629152480  IM1       55              0.0000000000
      7165       325  IM1       H4              6.4273953944       12.8006171364        1.6154608041  IM1       55              0.0000000000
      7166       325  IM1       C3              4.2963105268       12.7478265151        1.0264765898  IM1       55              0.0000000000
      7167       325  IM1       DC3             4.3116419691       12.7390091296        1.0183739386  IM1       55              0.0000000000
      7168       325  IM1       H5              3.9312851764       13.7674017898        1.0159052672  IM1       55              0.0000000000
      7169       325  IM1       C4              4.1443443129       10.5905485437        0.9679367228  IM1       55              0.0000000000
      7170       325  IM1       DC4             4.1627747269       10.5942022180        0.9508695080  IM1       55              0.0000000000
      7171       325  IM1       H6              3.7719625034        9.5695900892        0.8838200056  IM1       55              0.0000000000
      7172       325  IM1       N2              3.4260545905       11.6948408228        0.8083166581  IM1       55              0.0000000000
      7173       325  IM1       DN2             3.4338064795       11.6970649064        0.8008817074  IM1       55              0.0000000000
      7174       325  IM1       H7              2.4478477654       11.7465139236        0.6072164370  IM1       55              0.0000000000
      7175       325  IM1       LPN21           3.1343368085       11.7042102968        0.7389412398  IM1       55              0.0000000000
      7176       326  IM1       C1              8.3937143100      -23.5100446550       19.2111860418  IM1       56              0.0000000000
      7177       326  IM1       DC1             8.4226938106      -23.4789754038       19.2043292803  IM1       56              0.0000000000
      7178       326  IM1       H1              7.2915828069      -23.4335938492       19.0937874653  IM1       56              0.0000000000
      7179       326  IM1       H2              8.6088521006      -23.9936632586       20.1879919469  IM1       56              0.0000000000
      7180       326  IM1       H3              8.8091139596      -24.1222907384       18.3823803562  IM1       56              0.0000000000
      7181       326  IM1       N1              8.9947628165      -22.2062789844       19.1840059242  IM1       56              0.0000000000
      7182       326  IM1       DN1             9.0211551018      -22.1796132121       19.1831362264  IM1       56              0.0000000000
      7183       326  IM1       C2              8.3230208060      -21.0041434201       19.1245884015  IM1       56              0.0000000000
      7184       326  IM1       DC2             8.3567019681      -20.9970280833       19.1190604798  IM1       56              0.0000000000
      7185       326  IM1       H4              7.2432414000      -20.9340468356       19.0792904512  IM1       56              0.0000000000
      7186       326  IM1       C3              9.2768416363      -20.0355552019       19.1598461904  IM1       56              0.0000000000
      7187       326  IM1       DC3             9.3026764123      -20.0063484073       19.1619107548  IM1       56              0.0000000000
      7188       326  IM1       H5              9.1717731439      -18.9578516899       19.1397277239  IM1       56              0.0000000000
      7189       326  IM1       C4             10.3212683852      -21.9312376726       19.2519552514  IM1       56              0.0000000000
      7190       326  IM1       DC4            10.3314230300      -21.9289137176       19.2601959328  IM1       56              0.0000000000
      7191       326  IM1       H6             11.0877359078      -22.7016655830       19.3360288600  IM1       56              0.0000000000
      7192       326  IM1       N2             10.5328123891      -20.6137383860       19.2415184891  IM1       56              0.0000000000
      7193       326  IM1       DN2            10.5399701227      -20.6097533728       19.2459227795  IM1       56              0.0000000000
      7194       326  IM1       H7             11.4147185385      -20.1464281257       19.3036688247  IM1       56              0.0000000000
      7195       326  IM1       LPN21          10.8005054313      -20.4789364637       19.2545137525  IM1       56              0.0000000000
      7196       327  IM1       C1            -13.6146132057       -5.2737305269       19.4624817051  IM1       57              0.0000000000
      7197       327  IM1       DC1           -13.6374912210       -5.2778528002       19.4573357051  IM1       57              0.0000000000
      7198       327  IM1       H1            -14.0152129971       -6.0433589782       18.7685704327  IM1       57              0.0000000000
      7199       327  IM1       H2            -12.6716895464       -5.6488571745       19.9146940139  IM1       57              0.0000000000
      7200       327  IM1       H3            -13.4062083877       -4.3381758239       18.9006758400  IM1       57              0.0000000000
      7201       327  IM1       N1            -14.5693778681       -4.9936935040       20.5064403165  IM1       57              0.0000000000
      7202       327  IM1       DN1           -14.5983711763       -4.9993895833       20.5003632465  IM1       57              0.0000000000
      7203       327  IM1       C2            -15.8349229621       -5.5373201078       20.6183812385  IM1       57              0.0000000000
      7204       327  IM1       DC2           -15.8527854444       -5.5447675514       20.6026316262  IM1       57              0.0000000000
      7205       327  IM1       H4            -16.2047892909       -6.3145602044       19.9611250243  IM1       57              0.0000000000
      7206       327  IM1       C3            -16.4186493340       -4.9086986195       21.6726567857  IM1       57              0.0000000000
      7207       327  IM1       DC3           -16.4580451922       -4.9162851661       21.6629023812  IM1       57              0.0000000000
      7208       327  IM1       H5            -17.3996164734       -5.0396477604       22.1124803797  IM1       57              0.0000000000
      7209       327  IM1       C4            -14.4307333746       -4.0732502906       21.4924165771  IM1       57              0.0000000000
      7210       327  IM1       DC4           -14.4457143766       -4.0875575356       21.4606058077  IM1       57              0.0000000000
      7211       327  IM1       H6            -13.5090505384       -3.5208620832       21.6753592396  IM1       57              0.0000000000
      7212       327  IM1       N2            -15.5565216516       -3.9752297892       22.2014147816  IM1       57              0.0000000000
      7213       327  IM1       DN2           -15.5805358384       -3.9851507484       22.1767495118  IM1       57              0.0000000000
      7214       327  IM1       H7            -15.7045967788       -3.3883430925       22.9974284510  IM1       57              0.0000000000
      7215       327  IM1       LPN21         -15.6049211384       -3.7856734685       22.4288480486  IM1       57              0.0000000000
      7216       328  IM1       C1              5.7180054674      -17.1051790507        8.9064665642  IM1       58              0.0000000000
      7217       328  IM1       DC1             5.7354005259      -17.1014163582        8.9164938748  IM1       58              0.0000000000
      7218       328  IM1       H1              6.2028102835      -17.8933718508        9.5213140250  IM1       58              0.0000000000
      7219       328  IM1       H2              5.2308311413      -16.3553407250        9.5658030968  IM1       58              0.0000000000
      7220       328  IM1       H3              6.4759852041      -16.6160259645        8.2579937602  IM1       58              0.0000000000
      7221       328  IM1       N1              4.7213592524      -17.6958552553        8.0739997716  IM1       58              0.0000000000
      7222       328  IM1       DN1             4.7228482198      -17.6575236099        8.0763050953  IM1       58              0.0000000000
      7223       328  IM1       C2              4.5082215078      -19.0392595323        7.8787927371  IM1       58              0.0000000000
      7224       328  IM1       DC2             4.5231441355      -18.9786276703        7.8878224131  IM1       58              0.0000000000
      7225       328  IM1       H4              4.9966141699      -19.8375947629        8.4237904134  IM1       58              0.0000000000
      7226       328  IM1       C3              3.5185419492      -19.1293438560        6.9449700522  IM1       58              0.0000000000
      7227       328  IM1       DC3             3.5195731986      -19.0991163149        6.9522491434  IM1       58              0.0000000000
      7228       328  IM1       H5              3.0209585859      -20.0040035795        6.5446324888  IM1       58              0.0000000000
      7229       328  IM1       C4              3.8735733705      -17.0177408258        7.2649553513  IM1       58              0.0000000000
      7230       328  IM1       DC4             3.8775328309      -17.0053435947        7.2616818470  IM1       58              0.0000000000
      7231       328  IM1       H6              3.8094008613      -15.9299504632        7.2386111690  IM1       58              0.0000000000
      7232       328  IM1       N2              3.1278940499      -17.8532339184        6.5533573217  IM1       58              0.0000000000
      7233       328  IM1       DN2             3.1282800089      -17.8358957207        6.5406038499  IM1       58              0.0000000000
      7234       328  IM1       H7              2.4061880007      -17.6105901171        5.9050793225  IM1       58              0.0000000000
      7235       328  IM1       LPN21           2.9205347190      -17.7727747891        6.3520405653  IM1       58              0.0000000000
      7236       329  IM1       C1              7.7128509698       -7.2232809026       -9.1199113394  IM1       59              0.0000000000
      7237       329  IM1       DC1             7.7360177455       -7.2283464377       -9.1139466812  IM1       59              0.0000000000
      7238       329  IM1       H1              8.1006784350       -8.2643829783       -9.1240739369  IM1       59              0.0000000000
      7239       329  IM1       H2              7.1657414992       -7.0281796699      -10.0669740286  IM1       59              0.0000000000
      7240       329  IM1       H3              7.0259594713       -7.0853828912       -8.2576554565  IM1       59              0.0000000000
      7241       329  IM1       N1              8.7961339369       -6.2892420726       -9.0079270609  IM1       59              0.0000000000
      7242       329  IM1       DN1             8.8145024700       -6.2923513442       -9.0029389706  IM1       59              0.0000000000
      7243       329  IM1       C2             10.1354901236       -6.6053174322       -8.8990581745  IM1       59              0.0000000000
      7244       329  IM1       DC2            10.1361368687       -6.6075677091       -8.8906725894  IM1       59              0.0000000000
      7245       329  IM1       H4             10.5178525732       -7.6183714226       -8.9192960327  IM1       59              0.0000000000
      7246       329  IM1       C3             10.7954897433       -5.4173601115       -8.8185029751  IM1       59              0.0000000000
      7247       329  IM1       DC3            10.8129326858       -5.4172938302       -8.8056612730  IM1       59              0.0000000000
      7248       329  IM1       H5             11.8555146380       -5.2081547737       -8.7445479264  IM1       59              0.0000000000
      7249       329  IM1       C4              8.6872111944       -4.9376070758       -8.9834921018  IM1       59              0.0000000000
      7250       329  IM1       DC4             8.7021491032       -4.9671166794       -8.9817777896  IM1       59              0.0000000000
      7251       329  IM1       H6              7.7361029800       -4.4104849473       -9.0585615767  IM1       59              0.0000000000
      7252       329  IM1       N2              9.8928782294       -4.3748566538       -8.8609827583  IM1       59              0.0000000000
      7253       329  IM1       DN2             9.9087655233       -4.3870410903       -8.8570581120  IM1       59              0.0000000000
      7254       329  IM1       H7             10.0888319371       -3.3947775019       -8.8286253682  IM1       59              0.0000000000
      7255       329  IM1       LPN21           9.9484141291       -4.0804073297       -8.8463076285  IM1       59              0.0000000000
      7256       330  IM1       C1             -5.0949769409       25.6327619584      -29.2833656503  IM1       60              0.0000000000
      7257       330  IM1       DC1            -5.0967306370       25.6210497391      -29.2219221047  IM1       60              0.0000000000
      7258       330  IM1       H1             -5.9224172376       24.9848810143      -29.6438012723  IM1       60              0.0000000000
      7259       330  IM1       H2             -4.1443086390       25.0582313352      -29.3049374837  IM1       60              0.0000000000
      7260       330  IM1       H3             -5.0133746556       26.5051683408      -29.9664243383  IM1       60              0.0000000000
      7261       330  IM1       N1             -5.3542935407       26.0927800621      -27.9431917290  IM1       60              0.0000000000
      7262       330  IM1       DN1            -5.3487254302       26.0913438809      -27.9041834100  IM1       60              0.0000000000
      7263       330  IM1       C2             -6.4329498491       25.7379596149      -27.1611675048  IM1       60              0.0000000000
      7264       330  IM1       DC2            -6.4198715243       25.7328514148      -27.1572845668  IM1       60              0.0000000000
      7265       330  IM1       H4             -7.2489378701       25.1199075455      -27.5148116630  IM1       60              0.0000000000
      7266       330  IM1       C3             -6.2467554609       26.3493130164      -25.9575677971  IM1       60              0.0000000000
      7267       330  IM1       DC3            -6.2457410505       26.3504556742      -25.9430721672  IM1       60              0.0000000000
      7268       330  IM1       H5             -6.8758232229       26.3542860223      -25.0760134766  IM1       60              0.0000000000
      7269       330  IM1       C4             -4.5478336067       26.8868582381      -27.1911011034  IM1       60              0.0000000000
      7270       330  IM1       DC4            -4.5449196369       26.8828168941      -27.1857645721  IM1       60              0.0000000000
      7271       330  IM1       H6             -3.6119205185       27.3080632417      -27.5581883359  IM1       60              0.0000000000
      7272       330  IM1       N2             -5.0537317004       27.0535477250      -25.9669027400  IM1       60              0.0000000000
      7273       330  IM1       DN2            -5.0488052406       27.0498861420      -25.9546921172  IM1       60              0.0000000000
      7274       330  IM1       H7             -4.6700162556       27.6060990355      -25.2270044316  IM1       60              0.0000000000
      7275       330  IM1       LPN21          -4.9283918007       27.2123755840      -25.7453996458  IM1       60              0.0000000000
      7276       331  IM1       C1             15.9085477122       25.4625846959      -21.2936831136  IM1       61              0.0000000000
      7277       331  IM1       DC1            15.8660092328       25.4541393745      -21.2735751867  IM1       61              0.0000000000
      7278       331  IM1       H1             14.9993432186       24.8307523877      -21.2017259327  IM1       61              0.0000000000
      7279       331  IM1       H2             16.8186512154       24.8280071774      -21.2358558908  IM1       61              0.0000000000
      7280       331  IM1       H3             15.8946219336       25.9970194621      -22.2675961250  IM1       61              0.0000000000
      7281       331  IM1       N1             15.9596966551       26.4351452001      -20.2435630141  IM1       61              0.0000000000
      7282       331  IM1       DN1            15.9394159629       26.4327575785      -20.2324905617  IM1       61              0.0000000000
      7283       331  IM1       C2             14.9620949234       26.6743366133      -19.3247948312  IM1       61              0.0000000000
      7284       331  IM1       DC2            14.9458850396       26.6505710246      -19.3291766080  IM1       61              0.0000000000
      7285       331  IM1       H4             14.0486507324       26.0948911972      -19.2723379944  IM1       61              0.0000000000
      7286       331  IM1       C3             15.3751853088       27.7398646090      -18.5871365168  IM1       61              0.0000000000
      7287       331  IM1       DC3            15.3520238341       27.7218174824      -18.5713113115  IM1       61              0.0000000000
      7288       331  IM1       H5             14.8811048424       28.2711298706      -17.7830651800  IM1       61              0.0000000000
      7289       331  IM1       C4             16.9427122022       27.3424104054      -20.0296445674  IM1       61              0.0000000000
      7290       331  IM1       DC4            16.9093370568       27.3232428314      -20.0264784127  IM1       61              0.0000000000
      7291       331  IM1       H6             17.8684072604       27.3768048993      -20.6041057742  IM1       61              0.0000000000
      7292       331  IM1       N2             16.6185234875       28.1480059668      -19.0176548629  IM1       61              0.0000000000
      7293       331  IM1       DN2            16.5921848940       28.1335447190      -19.0107030443  IM1       61              0.0000000000
      7294       331  IM1       H7             17.1685148848       28.9019578814      -18.6583973321  IM1       61              0.0000000000
      7295       331  IM1       LPN21          16.7877544090       28.3714157456      -18.9106550220  IM1       61              0.0000000000
      7296       332  IM1       C1             18.8886813351       26.5983667490       -5.8766589310  IM1       62              0.0000000000
      7297       332  IM1       DC1            18.8906249189       26.5813230954       -5.8866043018  IM1       62              0.0000000000
      7298       332  IM1       H1             19.6971743808       25.8877458671       -5.6015626606  IM1       62              0.0000000000
      7299       332  IM1       H2             18.0216056996       26.4489343004       -5.1983000396  IM1       62              0.0000000000
      7300       332  IM1       H3             19.2674838134       27.6379357927       -5.7760314618  IM1       62              0.0000000000
      7301       332  IM1       N1             18.4660160061       26.3762207246       -7.2288936477  IM1       62              0.0000000000
      7302       332  IM1       DN1            18.4613278321       26.3748583285       -7.2339326478  IM1       62              0.0000000000
      7303       332  IM1       C2             18.8628173050       25.3443422853       -8.0531268638  IM1       62              0.0000000000
      7304       332  IM1       DC2            18.8636399482       25.3469022775       -8.0340124258  IM1       62              0.0000000000
      7305       332  IM1       H4             19.6522379430       24.6417046550       -7.8164743404  IM1       62              0.0000000000
      7306       332  IM1       C3             18.0617132376       25.4039828566       -9.1497351097  IM1       62              0.0000000000
      7307       332  IM1       DC3            18.0571493050       25.3968600878       -9.1445444130  IM1       62              0.0000000000
      7308       332  IM1       H5             18.0270404289       24.7642194745      -10.0228843588  IM1       62              0.0000000000
      7309       332  IM1       C4             17.4541486797       27.0271791683       -7.8477418728  IM1       62              0.0000000000
      7310       332  IM1       DC4            17.4601647792       27.0111886566       -7.8361912043  IM1       62              0.0000000000
      7311       332  IM1       H6             16.9433790913       27.8888460858       -7.4179226655  IM1       62              0.0000000000
      7312       332  IM1       N2             17.1760403421       26.4562915134       -9.0200773906  IM1       62              0.0000000000
      7313       332  IM1       DN2            17.1767551936       26.4450504801       -9.0167106153  IM1       62              0.0000000000
      7314       332  IM1       H7             16.4627152242       26.7335711914       -9.6637257856  IM1       62              0.0000000000
      7315       332  IM1       LPN21          16.9624933820       26.5446625654       -9.2113579516  IM1       62              0.0000000000
      7316       333  IM1       C1             24.1262962277      -26.2348075584        7.3182403227  IM1       63              0.0000000000
      7317       333  IM1       DC1            24.0947471252      -26.2668333770        7.3312130010  IM1       63              0.0000000000
      7318       333  IM1       H1             24.0343498383      -26.9842478319        6.5032518937  IM1       63              0.0000000000
      7319       333  IM1       H2             23.1989972100      -25.6264600013        7.3842007815  IM1       63              0.0000000000
      7320       333  IM1       H3             24.3549804876      -26.7479362995        8.2767409248  IM1       63              0.0000000000
      7321       333  IM1       N1             25.2122512653      -25.3670032202        7.0541450416  IM1       63              0.0000000000
      7322       333  IM1       DN1            25.1708586937      -25.3792170664        7.0784005752  IM1       63              0.0000000000
      7323       333  IM1       C2             26.2213191960      -25.6232246375        6.1679937352  IM1       63              0.0000000000
      7324       333  IM1       DC2            26.1694677696      -25.6295475663        6.2071619687  IM1       63              0.0000000000
      7325       333  IM1       H4             26.2480051632      -26.4685969314        5.4915896075  IM1       63              0.0000000000
      7326       333  IM1       C3             27.1139929943      -24.6038745797        6.3008306633  IM1       63              0.0000000000
      7327       333  IM1       DC3            27.0869110427      -24.6149255334        6.3143013768  IM1       63              0.0000000000
      7328       333  IM1       H5             28.0291307206      -24.4124861087        5.7542207522  IM1       63              0.0000000000
      7329       333  IM1       C4             25.5343279254      -24.2417251083        7.7326578677  IM1       63              0.0000000000
      7330       333  IM1       DC4            25.5243005661      -24.2609078298        7.7222278548  IM1       63              0.0000000000
      7331       333  IM1       H6             24.9525883467      -23.8449799026        8.5646868963  IM1       63              0.0000000000
      7332       333  IM1       N2             26.6846717676      -23.7395105119        7.2922814948  IM1       63              0.0000000000
      7333       333  IM1       DN2            26.6873621897      -23.7382340191        7.3010494745  IM1       63              0.0000000000
      7334       333  IM1       H7             27.1450704293      -22.9153724898        7.6221748003  IM1       63              0.0000000000
      7335       333  IM1       LPN21          26.8164903071      -23.4895890139        7.3930937832  IM1       63              0.0000000000
      7336       334  IM1       C1              5.2186769871      -20.9818490509       15.6676209151  IM1       64              0.0000000000
      7337       334  IM1       DC1             5.2693415490      -20.9753962181       15.6349819409  IM1       64              0.0000000000
      7338       334  IM1       H1              5.9786837493      -21.7770387522       15.5114669499  IM1       64              0.0000000000
      7339       334  IM1       H2              5.0784407749      -20.8628532704       16.7632918552  IM1       64              0.0000000000
      7340       334  IM1       H3              5.5542565948      -20.0142353246       15.2370039104  IM1       64              0.0000000000
      7341       334  IM1       N1              3.9773568357      -21.3622535896       15.0445576717  IM1       64              0.0000000000
      7342       334  IM1       DN1             4.0046270572      -21.3350256126       15.0351550564  IM1       64              0.0000000000
      7343       334  IM1       C2              3.7441352444      -22.5545037754       14.3944408375  IM1       64              0.0000000000
      7344       334  IM1       DC2             3.7931375015      -22.5102392331       14.3914465122  IM1       64              0.0000000000
      7345       334  IM1       H4              4.4123660474      -23.4067582611       14.3987866004  IM1       64              0.0000000000
      7346       334  IM1       C3              2.4710012888      -22.4784563422       13.9114494334  IM1       64              0.0000000000
      7347       334  IM1       DC3             2.5025019715      -22.4544012941       13.9118251798  IM1       64              0.0000000000
      7348       334  IM1       H5              1.8786864734      -23.2243548670       13.3960005512  IM1       64              0.0000000000
      7349       334  IM1       C4              2.8592426917      -20.6003825779       14.9211172666  IM1       64              0.0000000000
      7350       334  IM1       DC4             2.8810135930      -20.6020233335       14.9041002627  IM1       64              0.0000000000
      7351       334  IM1       H6              2.7306293670      -19.6301437466       15.4009039098  IM1       64              0.0000000000
      7352       334  IM1       N2              1.9274146398      -21.2410749422       14.2217500462  IM1       64              0.0000000000
      7353       334  IM1       DN2             1.9327617124      -21.2366618917       14.2172470397  IM1       64              0.0000000000
      7354       334  IM1       H7              0.9959281495      -20.9268591317       14.0384433557  IM1       64              0.0000000000
      7355       334  IM1       LPN21           1.6572647882      -21.1317713985       14.1505335243  IM1       64              0.0000000000
      7356       335  IM1       C1            -20.4276688126       16.5066566585       26.0307079346  IM1       65              0.0000000000
      7357       335  IM1       DC1           -20.4521816940       16.5190457470       26.0617446905  IM1       65              0.0000000000
      7358       335  IM1       H1            -21.0086767688       15.7468101029       25.4655672734  IM1       65              0.0000000000
      7359       335  IM1       H2            -19.7340922714       15.9933943687       26.7305896430  IM1       65              0.0000000000
      7360       335  IM1       H3            -19.8547246438       17.1196568063       25.3024999982  IM1       65              0.0000000000
      7361       335  IM1       N1            -21.3075887085       17.3623110291       26.7767073763  IM1       65              0.0000000000
      7362       335  IM1       DN1           -21.3199379581       17.3831123542       26.7995713735  IM1       65              0.0000000000
      7363       335  IM1       C2            -22.6766731329       17.3462249425       26.6853285952  IM1       65              0.0000000000
      7364       335  IM1       DC2           -22.6649299200       17.3583884134       26.7082535528  IM1       65              0.0000000000
      7365       335  IM1       H4            -23.2280162519       16.6525292320       26.0626761830  IM1       65              0.0000000000
      7366       335  IM1       C3            -23.1274830908       18.3434005338       27.4964938942  IM1       65              0.0000000000
      7367       335  IM1       DC3           -23.1234771011       18.3729721699       27.5175686362  IM1       65              0.0000000000
      7368       335  IM1       H5            -24.1471912041       18.6436147664       27.7037516518  IM1       65              0.0000000000
      7369       335  IM1       C4            -20.9674594261       18.3687916546       27.6263364009  IM1       65              0.0000000000
      7370       335  IM1       DC4           -20.9758132970       18.3789302278       27.6249756569  IM1       65              0.0000000000
      7371       335  IM1       H6            -19.9355929288       18.6169756558       27.8748444152  IM1       65              0.0000000000
      7372       335  IM1       N2            -22.0581163937       19.0041424355       28.0745659200  IM1       65              0.0000000000
      7373       335  IM1       DN2           -22.0620347989       19.0325795465       28.0825333536  IM1       65              0.0000000000
      7374       335  IM1       H7            -22.0925189878       19.7778983402       28.7071149389  IM1       65              0.0000000000
      7375       335  IM1       LPN21         -22.0619271680       19.2393157571       28.2607888691  IM1       65              0.0000000000
      7376       336  IM1       C1             19.7680546103       12.2253256866       26.3507079875  IM1       66              0.0000000000
      7377       336  IM1       DC1            19.7474869447       12.2288695591       26.3489321714  IM1       66              0.0000000000
      7378       336  IM1       H1             19.2920327183       11.5418530802       25.6154601690  IM1       66              0.0000000000
      7379       336  IM1       H2             20.2791745407       11.6342846673       27.1404851280  IM1       66              0.0000000000
      7380       336  IM1       H3             20.5064271913       12.8734109194       25.8319474813  IM1       66              0.0000000000
      7381       336  IM1       N1             18.7787539484       13.0553855943       26.9614076354  IM1       66              0.0000000000
      7382       336  IM1       DN1            18.7708219676       13.0622213279       26.9683677695  IM1       66              0.0000000000
      7383       336  IM1       C2             17.4258543651       13.0443460560       26.6933550008  IM1       66              0.0000000000
      7384       336  IM1       DC2            17.4365764704       13.0476728049       26.7015370939  IM1       66              0.0000000000
      7385       336  IM1       H4             16.9482142411       12.3509126593       26.0122536598  IM1       66              0.0000000000
      7386       336  IM1       C3             16.8898876429       14.0412062899       27.4460732197  IM1       66              0.0000000000
      7387       336  IM1       DC3            16.8866743915       14.0489732481       27.4558651954  IM1       66              0.0000000000
      7388       336  IM1       H5             15.8605768023       14.3614832356       27.5501446925  IM1       66              0.0000000000
      7389       336  IM1       C4             19.0194767216       14.0410202749       27.8607950314  IM1       66              0.0000000000
      7390       336  IM1       DC4            19.0063837663       14.0334366157       27.8527022907  IM1       66              0.0000000000
      7391       336  IM1       H6             20.0076325232       14.2624473845       28.2640544356  IM1       66              0.0000000000
      7392       336  IM1       N2             17.8874005323       14.6648419366       28.1788354202  IM1       66              0.0000000000
      7393       336  IM1       DN2            17.8781937670       14.6688320761       28.1900481769  IM1       66              0.0000000000
      7394       336  IM1       H7             17.7815559264       15.4141473491       28.8325466089  IM1       66              0.0000000000
      7395       336  IM1       LPN21          17.8627857007       14.8935084260       28.3714639401  IM1       66              0.0000000000
      7396       337  IM1       C1              1.2793336840        8.4855591375       16.9560211144  IM1       67              0.0000000000
      7397       337  IM1       DC1             1.2851385170        8.4913081908       16.9654345968  IM1       67              0.0000000000
      7398       337  IM1       H1              0.3742593687        8.4906104507       16.3117106541  IM1       67              0.0000000000
      7399       337  IM1       H2              0.9963211993        8.7086949449       18.0069423033  IM1       67              0.0000000000
      7400       337  IM1       H3              1.7606020146        7.4856433435       16.9024468765  IM1       67              0.0000000000
      7401       337  IM1       N1              2.2183748969        9.4605475462       16.4990268224  IM1       67              0.0000000000
      7402       337  IM1       DN1             2.2431471329        9.4514661783       16.5193885463  IM1       67              0.0000000000
      7403       337  IM1       C2              1.9687607913       10.5173273512       15.6623323106  IM1       67              0.0000000000
      7404       337  IM1       DC2             1.9773013786       10.4806229512       15.6906060269  IM1       67              0.0000000000
      7405       337  IM1       H4              1.0330232582       10.6625310552       15.1367848308  IM1       67              0.0000000000
      7406       337  IM1       C3              3.0563502788       11.3309875473       15.7253190165  IM1       67              0.0000000000
      7407       337  IM1       DC3             3.0667421967       11.3040049976       15.7409379250  IM1       67              0.0000000000
      7408       337  IM1       H5              3.2270759469       12.2924568588       15.2570044754  IM1       67              0.0000000000
      7409       337  IM1       C4              3.4388055974        9.6524934319       17.0341814843  IM1       67              0.0000000000
      7410       337  IM1       DC4             3.4465224045        9.6451863175       17.0536586777  IM1       67              0.0000000000
      7411       337  IM1       H6              3.9094674658        8.9393140151       17.7109033806  IM1       67              0.0000000000
      7412       337  IM1       N2              3.9858555764       10.7803438466       16.5923495227  IM1       67              0.0000000000
      7413       337  IM1       DN2             4.0000516237       10.7692263895       16.6037944032  IM1       67              0.0000000000
      7414       337  IM1       H7              4.8800296831       11.1540025719       16.8389906059  IM1       67              0.0000000000
      7415       337  IM1       LPN21           4.2557348655       10.8857992518       16.6700947916  IM1       67              0.0000000000
      7416       338  IM1       C1            -15.3701570777       -5.4181884881       11.9964526137  IM1       68              0.0000000000
      7417       338  IM1       DC1           -15.3705212903       -5.4672711683       11.9589704355  IM1       68              0.0000000000
      7418       338  IM1       H1            -16.1557909270       -6.1600755793       11.7381814397  IM1       68              0.0000000000
      7419       338  IM1       H2            -14.5327201247       -5.4440699166       11.2668290796  IM1       68              0.0000000000
      7420       338  IM1       H3            -15.8249054023       -4.4045620795       12.0057513273  IM1       68              0.0000000000
      7421       338  IM1       N1            -14.8448617486       -5.6986659368       13.2966594288  IM1       68              0.0000000000
      7422       338  IM1       DN1           -14.8441356491       -5.7138554198       13.2820805213  IM1       68              0.0000000000
      7423       338  IM1       C2            -15.0378451017       -6.8494635460       14.0347425964  IM1       68              0.0000000000
      7424       338  IM1       DC2           -15.0606248758       -6.8533991732       14.0021587140  IM1       68              0.0000000000
      7425       338  IM1       H4            -15.7388979570       -7.6361787450       13.7847564171  IM1       68              0.0000000000
      7426       338  IM1       C3            -14.2504585635       -6.7180189343       15.1414766510  IM1       68              0.0000000000
      7427       338  IM1       DC3           -14.2796244564       -6.7129978566       15.1282614318  IM1       68              0.0000000000
      7428       338  IM1       H5            -14.1378554192       -7.3607914405       16.0057989504  IM1       68              0.0000000000
      7429       338  IM1       C4            -13.9549736271       -4.9271413583       13.9596833081  IM1       68              0.0000000000
      7430       338  IM1       DC4           -13.9568337518       -4.9618765545       13.9455466950  IM1       68              0.0000000000
      7431       338  IM1       H6            -13.6371668994       -3.9439052630       13.6127745811  IM1       68              0.0000000000
      7432       338  IM1       N2            -13.5800279444       -5.5117637755       15.0946822661  IM1       68              0.0000000000
      7433       338  IM1       DN2           -13.5850216581       -5.5202110782       15.0951164126  IM1       68              0.0000000000
      7434       338  IM1       H7            -12.9503614900       -5.1386054075       15.7760580720  IM1       68              0.0000000000
      7435       338  IM1       LPN21         -13.3878574700       -5.3974505870       15.2946897752  IM1       68              0.0000000000
      7436       339  IM1       C1             22.9343631084        5.8930224068        5.1865114860  IM1       69              0.0000000000
      7437       339  IM1       DC1            22.9129311470        5.8918127629        5.1887750408  IM1       69              0.0000000000
      7438       339  IM1       H1             23.5387636914        5.6360056468        6.0825936933  IM1       69              0.0000000000
      7439       339  IM1       H2             22.1671451667        6.6446058262        5.4708000633  IM1       69              0.0000000000
      7440       339  IM1       H3             23.6032440266        6.2965711238        4.3965318981  IM1       69              0.0000000000
      7441       339  IM1       N1             22.2789821438        4.7205515342        4.6840044533  IM1       69              0.0000000000
      7442       339  IM1       DN1            22.2600009590        4.7203033427        4.6770961344  IM1       69              0.0000000000
      7443       339  IM1       C2             22.3352549511        3.4600103383        5.2368036127  IM1       69              0.0000000000
      7444       339  IM1       DC2            22.3120828662        3.4737615787        5.2140047613  IM1       69              0.0000000000
      7445       339  IM1       H4             22.9558648959        3.2042330127        6.0866919919  IM1       69              0.0000000000
      7446       339  IM1       C3             21.5449255120        2.6721238522        4.4614256942  IM1       69              0.0000000000
      7447       339  IM1       DC3            21.5164130075        2.6599500358        4.4470055854  IM1       69              0.0000000000
      7448       339  IM1       H5             21.3689381212        1.6049825890        4.5173449443  IM1       69              0.0000000000
      7449       339  IM1       C4             21.4513158517        4.6628294831        3.6115208610  IM1       69              0.0000000000
      7450       339  IM1       DC4            21.4388265133        4.6682144398        3.6215965744  IM1       69              0.0000000000
      7451       339  IM1       H6             21.2652549802        5.5098865685        2.9512363418  IM1       69              0.0000000000
      7452       339  IM1       N2             20.9594221967        3.4303787453        3.4622087348  IM1       69              0.0000000000
      7453       339  IM1       DN2            20.9426319457        3.4280624661        3.4625031024  IM1       69              0.0000000000
      7454       339  IM1       H7             20.3704643473        3.1104510427        2.7200666212  IM1       69              0.0000000000
      7455       339  IM1       LPN21          20.7628896797        3.3439278298        3.2526825814  IM1       69              0.0000000000
      7456       340  IM1       C1            -19.3062697239      -29.0408933058      -24.8646890170  IM1       70              0.0000000000
      7457       340  IM1       DC1           -19.3268523075      -29.0410939909      -24.8616695920  IM1       70              0.0000000000
      7458       340  IM1       H1            -20.2792945658      -29.5319321803      -24.6492256038  IM1       70              0.0000000000
      7459       340  IM1       H2            -19.1136539984      -28.2449842860      -24.1138568008  IM1       70              0.0000000000
      7460       340  IM1       H3            -18.4896592906      -29.7934783725      -24.8317630652  IM1       70              0.0000000000
      7461       340  IM1       N1            -19.3306075272      -28.4498534764      -26.1683182496  IM1       70              0.0000000000
      7462       340  IM1       DN1           -19.3332192131      -28.4458276486      -26.1585159716  IM1       70              0.0000000000
      7463       340  IM1       C2            -20.4395745340      -28.3068489964      -26.9766020636  IM1       70              0.0000000000
      7464       340  IM1       DC2           -20.4392504790      -28.3213773753      -26.9423631118  IM1       70              0.0000000000
      7465       340  IM1       H4            -21.4105332767      -28.7387915421      -26.7679066940  IM1       70              0.0000000000
      7466       340  IM1       C3            -20.0321118330      -27.5613935164      -28.0431785434  IM1       70              0.0000000000
      7467       340  IM1       DC3           -20.0430448552      -27.5736584847      -28.0180008495  IM1       70              0.0000000000
      7468       340  IM1       H5            -20.5762232255      -27.2329023154      -28.9200624146  IM1       70              0.0000000000
      7469       340  IM1       C4            -18.3040902359      -27.7817408905      -26.7499167203  IM1       70              0.0000000000
      7470       340  IM1       DC4           -18.3303235646      -27.7822367785      -26.7320225388  IM1       70              0.0000000000
      7471       340  IM1       H6            -17.3080524482      -27.7001328646      -26.3147743808  IM1       70              0.0000000000
      7472       340  IM1       N2            -18.7017518215      -27.2190235896      -27.8875138814  IM1       70              0.0000000000
      7473       340  IM1       DN2           -18.7197821232      -27.2149895394      -27.8702578292  IM1       70              0.0000000000
      7474       340  IM1       H7            -18.1422430435      -26.6685923740      -28.5071713708  IM1       70              0.0000000000
      7475       340  IM1       LPN21         -18.5299326171      -27.0523366598      -28.0683276763  IM1       70              0.0000000000
      7476       341  IM1       C1             -6.6356153471        6.4997486401      -11.5027015241  IM1       71              0.0000000000
      7477       341  IM1       DC1            -6.6628108003        6.4908826445      -11.5400139669  IM1       71              0.0000000000
      7478       341  IM1       H1             -6.2585902500        7.5423011608      -11.4301941607  IM1       71              0.0000000000
      7479       341  IM1       H2             -5.7920758861        5.8109421940      -11.2829110425  IM1       71              0.0000000000
      7480       341  IM1       H3             -7.4478099986        6.3387642732      -10.7619283586  IM1       71              0.0000000000
      7481       341  IM1       N1             -7.1200023404        6.2288058470      -12.8258097792  IM1       71              0.0000000000
      7482       341  IM1       DN1            -7.1508935906        6.2108960965      -12.8535108588  IM1       71              0.0000000000
      7483       341  IM1       C2             -7.1711952705        7.1157387920      -13.8802563516  IM1       71              0.0000000000
      7484       341  IM1       DC2            -7.1897773122        7.0925045640      -13.8897817523  IM1       71              0.0000000000
      7485       341  IM1       H4             -6.8605507901        8.1499045702      -13.7972494235  IM1       71              0.0000000000
      7486       341  IM1       C3             -7.5835961311        6.3945982709      -14.9590327464  IM1       71              0.0000000000
      7487       341  IM1       DC3            -7.5948275097        6.3656317287      -14.9813193412  IM1       71              0.0000000000
      7488       341  IM1       H5             -7.7296699409        6.7095205177      -15.9848862558  IM1       71              0.0000000000
      7489       341  IM1       C4             -7.5017318685        5.0146816401      -13.2922226970  IM1       71              0.0000000000
      7490       341  IM1       DC4            -7.5102874192        4.9970752301      -13.3030075816  IM1       71              0.0000000000
      7491       341  IM1       H6             -7.5396661126        4.1263759862      -12.6616879570  IM1       71              0.0000000000
      7492       341  IM1       N2             -7.7902067252        5.0710309666      -14.5934497118  IM1       71              0.0000000000
      7493       341  IM1       DN2            -7.7948617144        5.0457361212      -14.6045061054  IM1       71              0.0000000000
      7494       341  IM1       H7             -8.1071774588        4.3213473837      -15.1744007249  IM1       71              0.0000000000
      7495       341  IM1       LPN21          -7.8801555317        4.8407600095      -14.7634041131  IM1       71              0.0000000000
      7496       342  IM1       C1            -14.9970139823       27.6020698355      -14.3424253062  IM1       72              0.0000000000
      7497       342  IM1       DC1           -14.9841766894       27.6259727623      -14.3408740065  IM1       72              0.0000000000
      7498       342  IM1       H1            -13.9877245196       27.6008515815      -14.8068112407  IM1       72              0.0000000000
      7499       342  IM1       H2            -15.6860830148       28.2556027984      -14.9189663161  IM1       72              0.0000000000
      7500       342  IM1       H3            -15.3918841225       26.5637637498      -14.3602871430  IM1       72              0.0000000000
      7501       342  IM1       N1            -14.9225620429       28.0803324435      -12.9878982077  IM1       72              0.0000000000
      7502       342  IM1       DN1           -14.9196741889       28.0917923355      -12.9762110222  IM1       72              0.0000000000
      7503       342  IM1       C2            -13.8297648443       28.7176214632      -12.4404190975  IM1       72              0.0000000000
      7504       342  IM1       DC2           -13.8349442386       28.7231813603      -12.4469963087  IM1       72              0.0000000000
      7505       342  IM1       H4            -12.8591828089       28.7557252767      -12.9193842445  IM1       72              0.0000000000
      7506       342  IM1       C3            -14.2349391268       29.1871795734      -11.2291684562  IM1       72              0.0000000000
      7507       342  IM1       DC3           -14.2337230305       29.1938541167      -11.2201171270  IM1       72              0.0000000000
      7508       342  IM1       H5            -13.6773340500       29.7262195203      -10.4732574071  IM1       72              0.0000000000
      7509       342  IM1       C4            -15.9498900877       28.1911111568      -12.1042698442  IM1       72              0.0000000000
      7510       342  IM1       DC4           -15.9359047304       28.2026460252      -12.1080617685  IM1       72              0.0000000000
      7511       342  IM1       H6            -16.9383251511       27.7646482332      -12.2752245193  IM1       72              0.0000000000
      7512       342  IM1       N2            -15.5618206956       28.8576573888      -11.0135489283  IM1       72              0.0000000000
      7513       342  IM1       DN2           -15.5578236994       28.8628553695      -11.0034759520  IM1       72              0.0000000000
      7514       342  IM1       H7            -16.1197076828       29.0761582655      -10.2129120091  IM1       72              0.0000000000
      7515       342  IM1       LPN21         -15.7332169926       28.9191479712      -10.7751328684  IM1       72              0.0000000000
      7516       343  IM1       C1              5.7523480996       11.1414872500      -14.2100332960  IM1       73              0.0000000000
      7517       343  IM1       DC1             5.7729860613       11.1371507900      -14.2127552583  IM1       73              0.0000000000
      7518       343  IM1       H1              6.6381044153       10.8797698047      -14.8274964333  IM1       73              0.0000000000
      7519       343  IM1       H2              6.0798310084       11.6282950056      -13.2665852827  IM1       73              0.0000000000
      7520       343  IM1       H3              5.0878981883       11.8272997482      -14.7779140357  IM1       73              0.0000000000
      7521       343  IM1       N1              5.0103204094        9.9624933359      -13.8799373855  IM1       73              0.0000000000
      7522       343  IM1       DN1             5.0267817281        9.9586660141      -13.8859229642  IM1       73              0.0000000000
      7523       343  IM1       C2              5.3326784266        8.6700226664      -14.2452016948  IM1       73              0.0000000000
      7524       343  IM1       DC2             5.3702803280        8.6835786508      -14.2576252459  IM1       73              0.0000000000
      7525       343  IM1       H4              6.1707650952        8.4126865942      -14.8810301952  IM1       73              0.0000000000
      7526       343  IM1       C3              4.3719710059        7.8794998097      -13.6880020371  IM1       73              0.0000000000
      7527       343  IM1       DC3             4.4090297838        7.8826180617      -13.7049104309  IM1       73              0.0000000000
      7528       343  IM1       H5              4.2208015406        6.8086262864      -13.7451570007  IM1       73              0.0000000000
      7529       343  IM1       C4              3.8896993034        9.9150689473      -13.1174468186  IM1       73              0.0000000000
      7530       343  IM1       DC4             3.9283230418        9.9130869957      -13.1330246881  IM1       73              0.0000000000
      7531       343  IM1       H6              3.3908969792       10.7944228429      -12.7099753868  IM1       73              0.0000000000
      7532       343  IM1       N2              3.4896814704        8.6557868410      -12.9639305488  IM1       73              0.0000000000
      7533       343  IM1       DN2             3.5237916201        8.6505438032      -12.9724730079  IM1       73              0.0000000000
      7534       343  IM1       H7              2.6739287076        8.3479400757      -12.4742594356  IM1       73              0.0000000000
      7535       343  IM1       LPN21           3.2532567829        8.5667884778      -12.8021199852  IM1       73              0.0000000000
      7536       344  IM1       C1            -18.0358121346      -22.7420881106       11.9151219105  IM1       74              0.0000000000
      7537       344  IM1       DC1           -18.0528779762      -22.7319484321       11.9289412129  IM1       74              0.0000000000
      7538       344  IM1       H1            -17.9907689674      -22.4196789600       10.8528863186  IM1       74              0.0000000000
      7539       344  IM1       H2            -19.0160706124      -22.4313004619       12.3356279813  IM1       74              0.0000000000
      7540       344  IM1       H3            -17.8970689375      -23.8423206712       11.9826470039  IM1       74              0.0000000000
      7541       344  IM1       N1            -16.9998254126      -22.1033251737       12.6604467795  IM1       74              0.0000000000
      7542       344  IM1       DN1           -16.9931722978      -22.0921959096       12.6745348487  IM1       74              0.0000000000
      7543       344  IM1       C2            -15.8924272444      -21.4284397145       12.1897518317  IM1       74              0.0000000000
      7544       344  IM1       DC2           -15.8999228340      -21.3984992248       12.2243209777  IM1       74              0.0000000000
      7545       344  IM1       H4            -15.6570043862      -21.3372676136       11.1365886317  IM1       74              0.0000000000
      7546       344  IM1       C3            -15.2247692773      -20.9929362447       13.2928115715  IM1       74              0.0000000000
      7547       344  IM1       DC3           -15.2143490982      -20.9692636024       13.3136019248  IM1       74              0.0000000000
      7548       344  IM1       H5            -14.3140289984      -20.4124755166       13.3734743728  IM1       74              0.0000000000
      7549       344  IM1       C4            -16.9735321053      -22.0496168953       14.0081951874  IM1       74              0.0000000000
      7550       344  IM1       DC4           -16.9741913629      -22.0429706151       14.0037684726  IM1       74              0.0000000000
      7551       344  IM1       H6            -17.7415208972      -22.5265894973       14.6171207595  IM1       74              0.0000000000
      7552       344  IM1       N2            -15.9171198248      -21.3599219986       14.4347534802  IM1       74              0.0000000000
      7553       344  IM1       DN2           -15.9204923865      -21.3506665757       14.4382018171  IM1       74              0.0000000000
      7554       344  IM1       H7            -15.6667369571      -21.1798172641       15.3860004010  IM1       74              0.0000000000
      7555       344  IM1       LPN21         -15.8506558610      -21.3009955039       14.7213022714  IM1       74              0.0000000000
      7556       345  IM1       C1            -26.5918160117       -9.8396799181        8.7278960691  IM1       75              0.0000000000
      7557       345  IM1       DC1           -26.5698996072       -9.8053963480        8.7121167626  IM1       75              0.0000000000
      7558       345  IM1       H1            -26.7746135760       -9.0505676069        7.9674962978  IM1       75              0.0000000000
      7559       345  IM1       H2            -25.5722438801      -10.2630285817        8.6031179503  IM1       75              0.0000000000
      7560       345  IM1       H3            -26.7153356164       -9.4274953207        9.7521849769  IM1       75              0.0000000000
      7561       345  IM1       N1            -27.5339247424      -10.8956570546        8.5595876097  IM1       75              0.0000000000
      7562       345  IM1       DN1           -27.5147360548      -10.8714227136        8.5559549380  IM1       75              0.0000000000
      7563       345  IM1       C2            -28.5111382798      -10.9682045860        7.5883846753  IM1       75              0.0000000000
      7564       345  IM1       DC2           -28.4995959807      -10.9354038527        7.6059075381  IM1       75              0.0000000000
      7565       345  IM1       H4            -28.6777573126      -10.2141155621        6.8291239535  IM1       75              0.0000000000
      7566       345  IM1       C3            -29.1159378785      -12.1759581394        7.7656468758  IM1       75              0.0000000000
      7567       345  IM1       DC3           -29.1353226427      -12.1372400633        7.7598149819  IM1       75              0.0000000000
      7568       345  IM1       H5            -29.9230150125      -12.6447091818        7.2162945663  IM1       75              0.0000000000
      7569       345  IM1       C4            -27.5807458450      -12.0370136753        9.2879108848  IM1       75              0.0000000000
      7570       345  IM1       DC4           -27.5758110473      -12.0024131709        9.2663958683  IM1       75              0.0000000000
      7571       345  IM1       H6            -26.9214779593      -12.2503053831       10.1293219034  IM1       75              0.0000000000
      7572       345  IM1       N2            -28.5324687249      -12.8402443113        8.8257687829  IM1       75              0.0000000000
      7573       345  IM1       DN2           -28.5302820911      -12.8199861434        8.8043750698  IM1       75              0.0000000000
      7574       345  IM1       H7            -28.7823022386      -13.7361380664        9.1931345340  IM1       75              0.0000000000
      7575       345  IM1       LPN21         -28.6003371099      -13.1108492103        8.9360723228  IM1       75              0.0000000000
      7576       346  IM1       C1            -25.7687200767       11.6504908293       -8.4648310534  IM1       76              0.0000000000
      7577       346  IM1       DC1           -25.8081515831       11.6556421308       -8.4593604605  IM1       76              0.0000000000
      7578       346  IM1       H1            -25.9592460282       12.0508903396       -9.4835072015  IM1       76              0.0000000000
      7579       346  IM1       H2            -25.5018359392       10.5741491714       -8.5325251642  IM1       76              0.0000000000
      7580       346  IM1       H3            -24.9249835385       12.2134150779       -8.0114593002  IM1       76              0.0000000000
      7581       346  IM1       N1            -26.9332376376       11.7973952535       -7.6373341530  IM1       76              0.0000000000
      7582       346  IM1       DN1           -26.9595580650       11.8040771800       -7.6278188346  IM1       76              0.0000000000
      7583       346  IM1       C2            -28.1313424368       12.3680716906       -8.0160880691  IM1       76              0.0000000000
      7584       346  IM1       DC2           -28.1383741553       12.3662134190       -8.0223495207  IM1       76              0.0000000000
      7585       346  IM1       H4            -28.3163883117       12.7667798167       -9.0058753475  IM1       76              0.0000000000
      7586       346  IM1       C3            -28.9348967691       12.3155987182       -6.9177946014  IM1       76              0.0000000000
      7587       346  IM1       DC3           -28.9484079000       12.3203157139       -6.9134348903  IM1       76              0.0000000000
      7588       346  IM1       H5            -29.9549400813       12.6536858515       -6.7832667914  IM1       76              0.0000000000
      7589       346  IM1       C4            -27.0479122617       11.4191569273       -6.3377781955  IM1       76              0.0000000000
      7590       346  IM1       DC4           -27.0555769410       11.4333261240       -6.3507972652  IM1       76              0.0000000000
      7591       346  IM1       H6            -26.2468523814       10.9331458191       -5.7808255299  IM1       76              0.0000000000
      7592       346  IM1       N2            -28.2594144280       11.7235763890       -5.8659739520  IM1       76              0.0000000000
      7593       346  IM1       DN2           -28.2699724027       11.7272214437       -5.8670127752  IM1       76              0.0000000000
      7594       346  IM1       H7            -28.6000517569       11.5575524742       -4.9405539014  IM1       76              0.0000000000
      7595       346  IM1       LPN21         -28.3573866232       11.6709630089       -5.5873464566  IM1       76              0.0000000000
      7596       347  IM1       C1             -7.9012602161       16.9644356833      -14.3976750460  IM1       77              0.0000000000
      7597       347  IM1       DC1            -7.9159354473       17.0097933468      -14.3990834295  IM1       77              0.0000000000
      7598       347  IM1       H1             -8.8190387818       17.0817393471      -13.7826601217  IM1       77              0.0000000000
      7599       347  IM1       H2             -7.2728123755       16.1580652068      -13.9627716463  IM1       77              0.0000000000
      7600       347  IM1       H3             -8.1743253202       16.6883307153      -15.4385989123  IM1       77              0.0000000000
      7601       347  IM1       N1             -7.1455837854       18.1830268985      -14.4223874034  IM1       77              0.0000000000
      7602       347  IM1       DN1            -7.1586281311       18.2276863497      -14.4032920551  IM1       77              0.0000000000
      7603       347  IM1       C2             -7.4006581117       19.2904803192      -13.6463864985  IM1       77              0.0000000000
      7604       347  IM1       DC2            -7.3932391024       19.3300160804      -13.6465658689  IM1       77              0.0000000000
      7605       347  IM1       H4             -8.2408812482       19.3592978286      -12.9665495833  IM1       77              0.0000000000
      7606       347  IM1       C3             -6.3966389870       20.1686756866      -13.8920309868  IM1       77              0.0000000000
      7607       347  IM1       DC3            -6.3604094080       20.2140877816      -13.8691279870  IM1       77              0.0000000000
      7608       347  IM1       H5             -6.2080380513       21.1477913049      -13.4693593731  IM1       77              0.0000000000
      7609       347  IM1       C4             -6.0062309857       18.4266923026      -15.1186205947  IM1       77              0.0000000000
      7610       347  IM1       DC4            -6.0360076427       18.4539515306      -15.0825928476  IM1       77              0.0000000000
      7611       347  IM1       H6             -5.5545155326       17.7034248204      -15.7975442270  IM1       77              0.0000000000
      7612       347  IM1       N2             -5.5244188228       19.6429931457      -14.8070538124  IM1       77              0.0000000000
      7613       347  IM1       DN2            -5.5121933499       19.6712217972      -14.7775976675  IM1       77              0.0000000000
      7614       347  IM1       H7             -4.6803733159       20.0491478170      -15.1572331453  IM1       77              0.0000000000
      7615       347  IM1       LPN21          -5.2760238768       19.7696389698      -14.9177822462  IM1       77              0.0000000000
      7616       348  IM1       C1             29.4305285627      -21.7327062817      -22.0761814509  IM1       78              0.0000000000
      7617       348  IM1       DC1            29.4210867799      -21.7320738891      -22.0587841265  IM1       78              0.0000000000
      7618       348  IM1       H1             30.0504601628      -21.3139348927      -21.2548189638  IM1       78              0.0000000000
      7619       348  IM1       H2             29.9504730196      -21.5748902793      -23.0452391742  IM1       78              0.0000000000
      7620       348  IM1       H3             29.2600500930      -22.8160330679      -21.8982455997  IM1       78              0.0000000000
      7621       348  IM1       N1             28.1605804799      -21.0712185033      -22.1200805908  IM1       78              0.0000000000
      7622       348  IM1       DN1            28.1368187398      -21.0780679669      -22.1077519816  IM1       78              0.0000000000
      7623       348  IM1       C2             27.7214527295      -20.0898418403      -21.2554064181  IM1       78              0.0000000000
      7624       348  IM1       DC2            27.7267755098      -20.0973563297      -21.2537438927  IM1       78              0.0000000000
      7625       348  IM1       H4             28.3303786546      -19.6746658644      -20.4618529371  IM1       78              0.0000000000
      7626       348  IM1       C3             26.4607161045      -19.7684895129      -21.6584886189  IM1       78              0.0000000000
      7627       348  IM1       DC3            26.4614329522      -19.7824279617      -21.6481390809  IM1       78              0.0000000000
      7628       348  IM1       H5             25.7802591011      -19.0131762397      -21.2851668730  IM1       78              0.0000000000
      7629       348  IM1       C4             27.1602717787      -21.3235204818      -23.0009673133  IM1       78              0.0000000000
      7630       348  IM1       DC4            27.1586274259      -21.3337149216      -22.9720016116  IM1       78              0.0000000000
      7631       348  IM1       H6             27.2396682057      -22.0438255317      -23.8151889321  IM1       78              0.0000000000
      7632       348  IM1       N2             26.1033834651      -20.5557530382      -22.7372470735  IM1       78              0.0000000000
      7633       348  IM1       DN2            26.1072957971      -20.5612874437      -22.7192573855  IM1       78              0.0000000000
      7634       348  IM1       H7             25.2516092856      -20.5132167625      -23.2594265565  IM1       78              0.0000000000
      7635       348  IM1       LPN21          25.8434966871      -20.5593735414      -22.8870661464  IM1       78              0.0000000000
      7636       349  IM1       C1              5.8664964293       13.1023430282       19.0343822560  IM1       79              0.0000000000
      7637       349  IM1       DC1             5.8751763487       13.1048496963       19.0618316135  IM1       79              0.0000000000
      7638       349  IM1       H1              4.7760352763       12.9069937965       19.1183712617  IM1       79              0.0000000000
      7639       349  IM1       H2              6.4229561255       12.1453539482       19.1284328169  IM1       79              0.0000000000
      7640       349  IM1       H3              6.0694484346       13.5733208399       18.0488309461  IM1       79              0.0000000000
      7641       349  IM1       N1              6.2936294870       13.9923910000       20.0681433303  IM1       79              0.0000000000
      7642       349  IM1       DN1             6.3254083357       13.9980838138       20.0788457391  IM1       79              0.0000000000
      7643       349  IM1       C2              5.4874322759       14.6084026480       20.9941261589  IM1       79              0.0000000000
      7644       349  IM1       DC2             5.5056337208       14.5950682870       20.9846449379  IM1       79              0.0000000000
      7645       349  IM1       H4              4.4192269590       14.4438363640       21.0630053220  IM1       79              0.0000000000
      7646       349  IM1       C3              6.3083614366       15.3927826400       21.7448912509  IM1       79              0.0000000000
      7647       349  IM1       DC3             6.3314409093       15.3858066605       21.7380097629  IM1       79              0.0000000000
      7648       349  IM1       H5              6.0673064843       16.0426037020       22.5770655700  IM1       79              0.0000000000
      7649       349  IM1       C4              7.5635447895       14.4084932974       20.2858151140  IM1       79              0.0000000000
      7650       349  IM1       DC4             7.5811976965       14.4037233834       20.2899965773  IM1       79              0.0000000000
      7651       349  IM1       H6              8.4062795000       14.1159540139       19.6594613997  IM1       79              0.0000000000
      7652       349  IM1       N2              7.6181088737       15.2500103436       21.3160091757  IM1       79              0.0000000000
      7653       349  IM1       DN2             7.6429956159       15.2505591653       21.3193980704  IM1       79              0.0000000000
      7654       349  IM1       H7              8.4227631167       15.7306350681       21.6646227491  IM1       79              0.0000000000
      7655       349  IM1       LPN21           7.8667120882       15.3772953243       21.4255307510  IM1       79              0.0000000000
      7656       350  IM1       C1            -18.5863541037       -8.5389457930      -27.9201775413  IM1       80              0.0000000000
      7657       350  IM1       DC1           -18.5804203838       -8.5522358268      -27.9323745111  IM1       80              0.0000000000
      7658       350  IM1       H1            -19.0586635976       -9.3850243745      -28.4636807862  IM1       80              0.0000000000
      7659       350  IM1       H2            -18.9715505944       -7.5781698940      -28.3237296889  IM1       80              0.0000000000
      7660       350  IM1       H3            -18.8097292619       -8.6157939787      -26.8345814400  IM1       80              0.0000000000
      7661       350  IM1       N1            -17.1728041568       -8.5835065521      -28.0942007275  IM1       80              0.0000000000
      7662       350  IM1       DN1           -17.1629120549       -8.5855934337      -28.0973027796  IM1       80              0.0000000000
      7663       350  IM1       C2            -16.4798682547       -9.5256441624      -28.8208761888  IM1       80              0.0000000000
      7664       350  IM1       DC2           -16.4920165310       -9.5329222502      -28.8143028168  IM1       80              0.0000000000
      7665       350  IM1       H4            -16.9476949549      -10.3448540499      -29.3527806341  IM1       80              0.0000000000
      7666       350  IM1       C3            -15.1664637021       -9.1883644118      -28.7084013808  IM1       80              0.0000000000
      7667       350  IM1       DC3           -15.1627711599       -9.1972334925      -28.6977897332  IM1       80              0.0000000000
      7668       350  IM1       H5            -14.2901950809       -9.6676297906      -29.1271459359  IM1       80              0.0000000000
      7669       350  IM1       C4            -16.2738756812       -7.7172696251      -27.5652273842  IM1       80              0.0000000000
      7670       350  IM1       DC4           -16.2778806074       -7.7309796974      -27.5731275395  IM1       80              0.0000000000
      7671       350  IM1       H6            -16.5551021828       -6.8627589521      -26.9497412638  IM1       80              0.0000000000
      7672       350  IM1       N2            -15.0341522401       -8.0614052817      -27.9136774898  IM1       80              0.0000000000
      7673       350  IM1       DN2           -15.0254280062       -8.0652300266      -27.9130502687  IM1       80              0.0000000000
      7674       350  IM1       H7            -14.1895806494       -7.5868206205      -27.6657496192  IM1       80              0.0000000000
      7675       350  IM1       LPN21         -14.7834248866       -7.9183003024      -27.8320885253  IM1       80              0.0000000000
      7676       351  IM1       C1              7.3982628861      -22.5078357458       -2.7688886275  IM1       81              0.0000000000
      7677       351  IM1       DC1             7.4161063841      -22.4979402475       -2.7611295127  IM1       81              0.0000000000
      7678       351  IM1       H1              7.3812850000      -22.4085827485       -1.6624612262  IM1       81              0.0000000000
      7679       351  IM1       H2              7.0258969431      -23.5167401358       -3.0477730772  IM1       81              0.0000000000
      7680       351  IM1       H3              6.7572077425      -21.7250217450       -3.2277693792  IM1       81              0.0000000000
      7681       351  IM1       N1              8.7325778071      -22.3646932438       -3.2607928587  IM1       81              0.0000000000
      7682       351  IM1       DN1             8.7415674542      -22.3578304957       -3.2693316353  IM1       81              0.0000000000
      7683       351  IM1       C2              9.8713340494      -22.2282056364       -2.4992218749  IM1       81              0.0000000000
      7684       351  IM1       DC2             9.8449603486      -22.1989480929       -2.4955906738  IM1       81              0.0000000000
      7685       351  IM1       H4              9.8940855216      -22.3089691867       -1.4194771739  IM1       81              0.0000000000
      7686       351  IM1       C3             10.8970826706      -22.0800438942       -3.3836097796  IM1       81              0.0000000000
      7687       351  IM1       DC3            10.8746037568      -22.0471534512       -3.3777397218  IM1       81              0.0000000000
      7688       351  IM1       H5             11.9606630808      -21.9687619170       -3.2124314132  IM1       81              0.0000000000
      7689       351  IM1       C4              9.0955493074      -22.2844624014       -4.5618871470  IM1       81              0.0000000000
      7690       351  IM1       DC4             9.0894040134      -22.2737999998       -4.5535406615  IM1       81              0.0000000000
      7691       351  IM1       H6              8.4104085682      -22.4166380557       -5.3992710278  IM1       81              0.0000000000
      7692       351  IM1       N2             10.3985248030      -22.0689788797       -4.6724412360  IM1       81              0.0000000000
      7693       351  IM1       DN2            10.3881115062      -22.0438889830       -4.6650151981  IM1       81              0.0000000000
      7694       351  IM1       H7             10.9225734217      -22.0031405116       -5.5215810093  IM1       81              0.0000000000
      7695       351  IM1       LPN21          10.5465381354      -22.0272864781       -4.9300335439  IM1       81              0.0000000000
      7696       352  IM1       C1              6.2021878405       18.7283296776       10.7270991172  IM1       82              0.0000000000
      7697       352  IM1       DC1             6.2184642907       18.7524116467       10.7320299920  IM1       82              0.0000000000
      7698       352  IM1       H1              5.1295837406       19.0059291643       10.6447585302  IM1       82              0.0000000000
      7699       352  IM1       H2              6.3541984364       18.1436848069       11.6595175616  IM1       82              0.0000000000
      7700       352  IM1       H3              6.4818620380       18.1293749432        9.8341508715  IM1       82              0.0000000000
      7701       352  IM1       N1              7.0179998850       19.9042849826       10.7533945036  IM1       82              0.0000000000
      7702       352  IM1       DN1             7.0390057862       19.9311354352       10.7758883856  IM1       82              0.0000000000
      7703       352  IM1       C2              6.5610196390       21.2025810088       10.7836560590  IM1       82              0.0000000000
      7704       352  IM1       DC2             6.5869193190       21.2198925415       10.8105916935  IM1       82              0.0000000000
      7705       352  IM1       H4              5.5245360761       21.4613474411       10.6058056801  IM1       82              0.0000000000
      7706       352  IM1       C3              7.6510174654       21.9803039989       10.9899590166  IM1       82              0.0000000000
      7707       352  IM1       DC3             7.6896908800       22.0115495663       10.9821080782  IM1       82              0.0000000000
      7708       352  IM1       H5              7.7325275163       23.0596804672       11.0244778691  IM1       82              0.0000000000
      7709       352  IM1       C4              8.3623507841       19.9375090676       10.9246738696  IM1       82              0.0000000000
      7710       352  IM1       DC4             8.3656691862       19.9454460364       10.9381359931  IM1       82              0.0000000000
      7711       352  IM1       H6              8.9859584179       19.0436781619       10.9079457177  IM1       82              0.0000000000
      7712       352  IM1       N2              8.7870263055       21.1934108017       11.0839368835  IM1       82              0.0000000000
      7713       352  IM1       DN2             8.8017215370       21.2042508544       11.0899666559  IM1       82              0.0000000000
      7714       352  IM1       H7              9.7332358624       21.4958277030       11.1989651071  IM1       82              0.0000000000
      7715       352  IM1       LPN21           9.0709413860       21.2786768097       11.1300013489  IM1       82              0.0000000000
      7716       353  IM1       C1             27.7635018571       -0.3474145562        0.8160926021  IM1       83              0.0000000000
      7717       353  IM1       DC1            27.7560088030       -0.3139577995        0.8191186807  IM1       83              0.0000000000
      7718       353  IM1       H1             28.4400523770       -0.5187733180        1.6805210658  IM1       83              0.0000000000
      7719       353  IM1       H2             28.0440362672       -1.0582164793        0.0096299107  IM1       83              0.0000000000
      7720       353  IM1       H3             26.7087517725       -0.5117149031        1.1240352196  IM1       83              0.0000000000
      7721       353  IM1       N1             27.9087326084        0.9731046649        0.3089679262  IM1       83              0.0000000000
      7722       353  IM1       DN1            27.8953155507        0.9888709548        0.2899607230  IM1       83              0.0000000000
      7723       353  IM1       C2             28.7611183967        1.9444271959        0.7854159739  IM1       83              0.0000000000
      7724       353  IM1       DC2            28.7542723352        1.9254747549        0.7827619649  IM1       83              0.0000000000
      7725       353  IM1       H4             29.3378748597        1.8354313373        1.6955593061  IM1       83              0.0000000000
      7726       353  IM1       C3             28.7662082413        2.9278649045       -0.1542235963  IM1       83              0.0000000000
      7727       353  IM1       DC3            28.7519968707        2.9321279643       -0.1465876304  IM1       83              0.0000000000
      7728       353  IM1       H5             29.3556281264        3.8352467777       -0.2003899830  IM1       83              0.0000000000
      7729       353  IM1       C4             27.4167521677        1.3962230771       -0.8779643637  IM1       83              0.0000000000
      7730       353  IM1       DC4            27.4036113640        1.3839991857       -0.8818763181  IM1       83              0.0000000000
      7731       353  IM1       H6             26.7199835643        0.8112991607       -1.4783621696  IM1       83              0.0000000000
      7732       353  IM1       N2             27.9070208056        2.5907832326       -1.1890840764  IM1       83              0.0000000000
      7733       353  IM1       DN2            27.9027182478        2.5901159357       -1.1898547947  IM1       83              0.0000000000
      7734       353  IM1       H7             27.7253738803        3.1145156374       -2.0213753492  IM1       83              0.0000000000
      7735       353  IM1       LPN21          27.8394210023        2.7477925940       -1.4356166849  IM1       83              0.0000000000
      7736       354  IM1       C1             -5.0444204480      -26.0652777374       -7.4915121432  IM1       84              0.0000000000
      7737       354  IM1       DC1            -5.0412243208      -26.0793531594       -7.4958099548  IM1       84              0.0000000000
      7738       354  IM1       H1             -4.7685957814      -26.9759989450       -6.9180763262  IM1       84              0.0000000000
      7739       354  IM1       H2             -5.2705621300      -25.2403759165       -6.7824861031  IM1       84              0.0000000000
      7740       354  IM1       H3             -4.2031968697      -25.7851714250       -8.1609927968  IM1       84              0.0000000000
      7741       354  IM1       N1             -6.2031206632      -26.3110241995       -8.2920372778  IM1       84              0.0000000000
      7742       354  IM1       DN1            -6.2020383433      -26.2952759621       -8.3028469605  IM1       84              0.0000000000
      7743       354  IM1       C2             -6.8727806844      -27.5087003604       -8.3509072826  IM1       84              0.0000000000
      7744       354  IM1       DC2            -6.8406150566      -27.4871161786       -8.3606746276  IM1       84              0.0000000000
      7745       354  IM1       H4             -6.6485271093      -28.3593682771       -7.7192717631  IM1       84              0.0000000000
      7746       354  IM1       C3             -7.8119396880      -27.3657602979       -9.3229830016  IM1       84              0.0000000000
      7747       354  IM1       DC3            -7.8023259769      -27.3599971012       -9.3322726115  IM1       84              0.0000000000
      7748       354  IM1       H5             -8.5473708336      -28.0745220193       -9.6831036127  IM1       84              0.0000000000
      7749       354  IM1       C4             -6.7596439028      -25.4770293807       -9.2076739105  IM1       84              0.0000000000
      7750       354  IM1       DC4            -6.7545695595      -25.4740487088       -9.2076967282  IM1       84              0.0000000000
      7751       354  IM1       H6             -6.4379854264      -24.4477451203       -9.3664496564  IM1       84              0.0000000000
      7752       354  IM1       N2             -7.7485199863      -26.0856771286       -9.8564412029  IM1       84              0.0000000000
      7753       354  IM1       DN2            -7.7563567084      -26.0788778053       -9.8567828138  IM1       84              0.0000000000
      7754       354  IM1       H7             -8.3265329428      -25.6980978344      -10.5745521365  IM1       84              0.0000000000
      7755       354  IM1       LPN21          -7.9173029152      -25.9631578472      -10.0720829164  IM1       84              0.0000000000
      7756       355  IM1       C1             26.6951217335        8.1994545953       -3.8542882931  IM1       85              0.0000000000
      7757       355  IM1       DC1            26.6923162158        8.2061772424       -3.8601347957  IM1       85              0.0000000000
      7758       355  IM1       H1             27.6466821281        8.7712342485       -3.8104494432  IM1       85              0.0000000000
      7759       355  IM1       H2             26.0421941985        8.4960562070       -3.0057400518  IM1       85              0.0000000000
      7760       355  IM1       H3             26.1875090237        8.3972590194       -4.8225463911  IM1       85              0.0000000000
      7761       355  IM1       N1             26.9632778643        6.7988326021       -3.7549137946  IM1       85              0.0000000000
      7762       355  IM1       DN1            26.9386065203        6.8018603521       -3.7630692610  IM1       85              0.0000000000
      7763       355  IM1       C2             28.1998612336        6.2144825805       -3.5985731890  IM1       85              0.0000000000
      7764       355  IM1       DC2            28.1632365077        6.2345182264       -3.6075632622  IM1       85              0.0000000000
      7765       355  IM1       H4             29.1279530841        6.7603298745       -3.4820174145  IM1       85              0.0000000000
      7766       355  IM1       C3             27.9803811028        4.8703914596       -3.5885973144  IM1       85              0.0000000000
      7767       355  IM1       DC3            27.9590085913        4.8796381129       -3.6404957697  IM1       85              0.0000000000
      7768       355  IM1       H5             28.6785226893        4.0532352740       -3.4553941063  IM1       85              0.0000000000
      7769       355  IM1       C4             26.0435447268        5.8089833545       -3.8596228259  IM1       85              0.0000000000
      7770       355  IM1       DC4            26.0413179319        5.8136592968       -3.8784859550  IM1       85              0.0000000000
      7771       355  IM1       H6             24.9702731547        5.9851909932       -3.9313096489  IM1       85              0.0000000000
      7772       355  IM1       N2             26.6320337320        4.6194461980       -3.8216332669  IM1       85              0.0000000000
      7773       355  IM1       DN2            26.6253416773        4.6085171887       -3.8696688364  IM1       85              0.0000000000
      7774       355  IM1       H7             26.1798054626        3.7275998560       -3.8316179812  IM1       85              0.0000000000
      7775       355  IM1       LPN21          26.4930107418        4.3560082675       -3.8573133023  IM1       85              0.0000000000
      7776       356  IM1       C1             27.5314897788        5.3830228709      -23.7036478831  IM1       86              0.0000000000
      7777       356  IM1       DC1            27.5157095663        5.3943561470      -23.6802066300  IM1       86              0.0000000000
      7778       356  IM1       H1             27.4982212500        6.4456681433      -24.0261370024  IM1       86              0.0000000000
      7779       356  IM1       H2             26.6214643035        4.8573065481      -24.0639213675  IM1       86              0.0000000000
      7780       356  IM1       H3             28.4393643397        4.9009372041      -24.1251667933  IM1       86              0.0000000000
      7781       356  IM1       N1             27.5843343673        5.2961937931      -22.2736068908  IM1       86              0.0000000000
      7782       356  IM1       DN1            27.5722054511        5.3009788441      -22.2484518931  IM1       86              0.0000000000
      7783       356  IM1       C2             27.5750017685        6.3592196002      -21.3951658407  IM1       86              0.0000000000
      7784       356  IM1       DC2            27.5558192422        6.3576702502      -21.3871243587  IM1       86              0.0000000000
      7785       356  IM1       H4             27.6361370814        7.3924312033      -21.7139530059  IM1       86              0.0000000000
      7786       356  IM1       C3             27.5717866991        5.8144551665      -20.1483369329  IM1       86              0.0000000000
      7787       356  IM1       DC3            27.5396775660        5.8170871108      -20.1272541003  IM1       86              0.0000000000
      7788       356  IM1       H5             27.6288003088        6.2948119755      -19.1793705845  IM1       86              0.0000000000
      7789       356  IM1       C4             27.5597190128        4.1540966028      -21.5411373682  IM1       86              0.0000000000
      7790       356  IM1       DC4            27.5342038775        4.1693271305      -21.5378476469  IM1       86              0.0000000000
      7791       356  IM1       H6             27.6276911231        3.1584717596      -21.9795560764  IM1       86              0.0000000000
      7792       356  IM1       N2             27.4964889335        4.4362615364      -20.2378625074  IM1       86              0.0000000000
      7793       356  IM1       DN2            27.4653957974        4.4435619413      -20.2328339583  IM1       86              0.0000000000
      7794       356  IM1       H7             27.5446119280        3.7788874504      -19.4858362522  IM1       86              0.0000000000
      7795       356  IM1       LPN21          27.4711674228        4.2358806441      -20.0160375334  IM1       86              0.0000000000
      7796       357  IM1       C1             -9.4379937300      -19.4983701789       -3.7199796971  IM1       87              0.0000000000
      7797       357  IM1       DC1            -9.4199209669      -19.4785852194       -3.7084660201  IM1       87              0.0000000000
      7798       357  IM1       H1             -8.4027523016      -19.1040255380       -3.8041728632  IM1       87              0.0000000000
      7799       357  IM1       H2             -9.9516087466      -19.0667605779       -2.8344099545  IM1       87              0.0000000000
      7800       357  IM1       H3            -10.0012152815      -19.2421037374       -4.6427093408  IM1       87              0.0000000000
      7801       357  IM1       N1             -9.4034194941      -20.9191880507       -3.5850397966  IM1       87              0.0000000000
      7802       357  IM1       DN1            -9.4196569130      -20.8914231755       -3.5808879232  IM1       87              0.0000000000
      7803       357  IM1       C2             -8.2803040967      -21.7009431655       -3.4328908959  IM1       87              0.0000000000
      7804       357  IM1       DC2            -8.2932266124      -21.6311305866       -3.4498499077  IM1       87              0.0000000000
      7805       357  IM1       H4             -7.2614342149      -21.3402551357       -3.3643539778  IM1       87              0.0000000000
      7806       357  IM1       C3             -8.7198644575      -22.9918234929       -3.3880380945  IM1       87              0.0000000000
      7807       357  IM1       DC3            -8.7239957739      -22.9308848651       -3.4007244367  IM1       87              0.0000000000
      7808       357  IM1       H5             -8.1633206301      -23.9164832260       -3.2977477507  IM1       87              0.0000000000
      7809       357  IM1       C4            -10.4798491874      -21.7396918204       -3.6156668022  IM1       87              0.0000000000
      7810       357  IM1       DC4           -10.4666847810      -21.7150495985       -3.6076175878  IM1       87              0.0000000000
      7811       357  IM1       H6            -11.5079058604      -21.3908806539       -3.7132897869  IM1       87              0.0000000000
      7812       357  IM1       N2            -10.1033036372      -23.0060692819       -3.4977618416  IM1       87              0.0000000000
      7813       357  IM1       DN2           -10.0982998109      -22.9879446686       -3.4954742510  IM1       87              0.0000000000
      7814       357  IM1       H7            -10.7004827794      -23.8081768231       -3.4970101286  IM1       87              0.0000000000
      7815       357  IM1       LPN21         -10.2887672268      -23.2418679325       -3.4962607424  IM1       87              0.0000000000
      7816       358  IM1       C1              8.9390285002       18.3327114383      -14.8546185518  IM1       88              0.0000000000
      7817       358  IM1       DC1             8.9320698710       18.3604562757      -14.8669210036  IM1       88              0.0000000000
      7818       358  IM1       H1              7.9392136624       18.7683221708      -14.6426407690  IM1       88              0.0000000000
      7819       358  IM1       H2              9.2971821425       18.6790941127      -15.8476271175  IM1       88              0.0000000000
      7820       358  IM1       H3              9.6538449973       18.6308676793      -14.0580878035  IM1       88              0.0000000000
      7821       358  IM1       N1              8.8505355306       16.9092600578      -14.8888673254  IM1       88              0.0000000000
      7822       358  IM1       DN1             8.8706622190       16.9394658070      -14.8924707587  IM1       88              0.0000000000
      7823       358  IM1       C2              7.6952285143       16.1690458985      -14.7872499350  IM1       88              0.0000000000
      7824       358  IM1       DC2             7.7255597878       16.2171426435      -14.7915516693  IM1       88              0.0000000000
      7825       358  IM1       H4              6.7030090540       16.5807698494      -14.6498711487  IM1       88              0.0000000000
      7826       358  IM1       C3              8.0773332269       14.8638120808      -14.8826253951  IM1       88              0.0000000000
      7827       358  IM1       DC3             8.0782820214       14.8924876571      -14.8656159211  IM1       88              0.0000000000
      7828       358  IM1       H5              7.4867796221       13.9569990474      -14.8398987963  IM1       88              0.0000000000
      7829       358  IM1       C4              9.8851582442       16.0473207613      -15.0453645718  IM1       88              0.0000000000
      7830       358  IM1       DC4             9.8747444996       16.0716933890      -15.0482406161  IM1       88              0.0000000000
      7831       358  IM1       H6             10.9255539653       16.3550689162      -15.1500919163  IM1       88              0.0000000000
      7832       358  IM1       N2              9.4506317919       14.7920555858      -15.0384068606  IM1       88              0.0000000000
      7833       358  IM1       DN2             9.4467769675       14.7999845924      -15.0308249972  IM1       88              0.0000000000
      7834       358  IM1       H7             10.0104952152       13.9677937203      -15.1229368812  IM1       88              0.0000000000
      7835       358  IM1       LPN21           9.6232101098       14.5481941922      -15.0657627539  IM1       88              0.0000000000
      7836       359  IM1       C1             20.7412272971       19.5532337479       -4.0258324168  IM1       89              0.0000000000
      7837       359  IM1       DC1            20.7229873554       19.5541115736       -4.0377265138  IM1       89              0.0000000000
      7838       359  IM1       H1             20.7645849256       18.4862521046       -4.3345808518  IM1       89              0.0000000000
      7839       359  IM1       H2             21.3610578902       19.6913338240       -3.1142078201  IM1       89              0.0000000000
      7840       359  IM1       H3             21.1318226447       20.1766444386       -4.8583679327  IM1       89              0.0000000000
      7841       359  IM1       N1             19.4041756048       19.9409023982       -3.7359811893  IM1       89              0.0000000000
      7842       359  IM1       DN1            19.3951683143       19.9530611531       -3.7415883003  IM1       89              0.0000000000
      7843       359  IM1       C2             18.2757452439       19.2132953063       -4.0269342257  IM1       89              0.0000000000
      7844       359  IM1       DC2            18.2926677496       19.1960140708       -4.0115739529  IM1       89              0.0000000000
      7845       359  IM1       H4             18.3000276281       18.2237742128       -4.4664195740  IM1       89              0.0000000000
      7846       359  IM1       C3             17.2256782461       19.9913536558       -3.6333528597  IM1       89              0.0000000000
      7847       359  IM1       DC3            17.2192016087       19.9802942323       -3.6219173137  IM1       89              0.0000000000
      7848       359  IM1       H5             16.1653497579       19.7709355772       -3.6362455628  IM1       89              0.0000000000
      7849       359  IM1       C4             19.0138805831       21.1197949940       -3.1933432702  IM1       89              0.0000000000
      7850       359  IM1       DC4            19.0161906814       21.1257113130       -3.2256368905  IM1       89              0.0000000000
      7851       359  IM1       H6             19.7155514793       21.8908279811       -2.8751199427  IM1       89              0.0000000000
      7852       359  IM1       N2             17.6859013995       21.1958839285       -3.1295098125  IM1       89              0.0000000000
      7853       359  IM1       DN2            17.6770501285       21.2061570634       -3.1413585303  IM1       89              0.0000000000
      7854       359  IM1       H7             17.1418602791       21.9529694471       -2.7677906165  IM1       89              0.0000000000
      7855       359  IM1       LPN21          17.5279613669       21.4290604777       -3.0261481030  IM1       89              0.0000000000
      7856       360  IM1       C1             -3.6464001244       19.2191241677       19.3109477896  IM1       90              0.0000000000
      7857       360  IM1       DC1            -3.5991210613       19.1964634848       19.3048469291  IM1       90              0.0000000000
      7858       360  IM1       H1             -3.8269708400       18.3564609869       18.6345400330  IM1       90              0.0000000000
      7859       360  IM1       H2             -3.0529338017       19.9967339982       18.7842204620  IM1       90              0.0000000000
      7860       360  IM1       H3             -4.6196499532       19.6473785071       19.6329788319  IM1       90              0.0000000000
      7861       360  IM1       N1             -2.9309118890       18.7975077868       20.4769625009  IM1       90              0.0000000000
      7862       360  IM1       DN1            -2.8906592449       18.7704153831       20.4892799104  IM1       90              0.0000000000
      7863       360  IM1       C2             -2.4026253837       17.5433143871       20.7115406552  IM1       90              0.0000000000
      7864       360  IM1       DC2            -2.3664745989       17.5334034089       20.7245389255  IM1       90              0.0000000000
      7865       360  IM1       H4             -2.5947148980       16.6933874537       20.0684117199  IM1       90              0.0000000000
      7866       360  IM1       C3             -1.6941945729       17.6502292084       21.8671868411  IM1       90              0.0000000000
      7867       360  IM1       DC3            -1.6582349087       17.6294792752       21.8966247646  IM1       90              0.0000000000
      7868       360  IM1       H5             -1.1107803438       16.9136978029       22.4057389055  IM1       90              0.0000000000
      7869       360  IM1       C4             -2.5151101995       19.6144497377       21.4760780500  IM1       90              0.0000000000
      7870       360  IM1       DC4            -2.4889794951       19.5962394806       21.4688539159  IM1       90              0.0000000000
      7871       360  IM1       H6             -2.7874812445       20.6682636233       21.5343044047  IM1       90              0.0000000000
      7872       360  IM1       N2             -1.7470373799       18.9431863452       22.3434562482  IM1       90              0.0000000000
      7873       360  IM1       DN2            -1.7325109002       18.9301431466       22.3539754954  IM1       90              0.0000000000
      7874       360  IM1       H7             -1.3178387654       19.3069980593       23.1701542510  IM1       90              0.0000000000
      7875       360  IM1       LPN21          -1.6165586500       19.0566661451       22.5886044402  IM1       90              0.0000000000
      7876       361  IM1       C1            -14.7574782309       -7.2283570526        4.3056908329  IM1       91              0.0000000000
      7877       361  IM1       DC1           -14.7705752208       -7.2502313865        4.3079369943  IM1       91              0.0000000000
      7878       361  IM1       H1            -14.9254854181       -6.4867401630        5.1156902000  IM1       91              0.0000000000
      7879       361  IM1       H2            -14.6318014906       -6.6886226030        3.3427717912  IM1       91              0.0000000000
      7880       361  IM1       H3            -13.8492739017       -7.8249896705        4.5370248270  IM1       91              0.0000000000
      7881       361  IM1       N1            -15.8844460189       -8.1053602319        4.2004313288  IM1       91              0.0000000000
      7882       361  IM1       DN1           -15.8908638349       -8.1280361272        4.1920228742  IM1       91              0.0000000000
      7883       361  IM1       C2            -17.1449216242       -7.8423305133        4.6843000935  IM1       91              0.0000000000
      7884       361  IM1       DC2           -17.1269812280       -7.8562498381        4.6822966665  IM1       91              0.0000000000
      7885       361  IM1       H4            -17.3782017433       -7.0089687116        5.3354356351  IM1       91              0.0000000000
      7886       361  IM1       C3            -17.9508064218       -8.8273136878        4.2026311293  IM1       91              0.0000000000
      7887       361  IM1       DC3           -17.9463118557       -8.8429760118        4.1981308951  IM1       91              0.0000000000
      7888       361  IM1       H5            -19.0060254945       -9.0036617527        4.3708662876  IM1       91              0.0000000000
      7889       361  IM1       C4            -15.9638833351       -9.2217696648        3.4340366314  IM1       91              0.0000000000
      7890       361  IM1       DC4           -15.9646470000       -9.2195340620        3.4245674282  IM1       91              0.0000000000
      7891       361  IM1       H6            -15.1272721414       -9.6285350167        2.8659489101  IM1       91              0.0000000000
      7892       361  IM1       N2            -17.2109874410       -9.6916046967        3.4158943914  IM1       91              0.0000000000
      7893       361  IM1       DN2           -17.2124387994       -9.6884893651        3.3985119444  IM1       91              0.0000000000
      7894       361  IM1       H7            -17.5479573604      -10.4882876615        2.9141499076  IM1       91              0.0000000000
      7895       361  IM1       LPN21         -17.3038132290       -9.9358662337        3.2685184278  IM1       91              0.0000000000
      7896       362  IM1       C1            -19.9657363506       23.9659708482       -2.7522909025  IM1       92              0.0000000000
      7897       362  IM1       DC1           -19.9895918492       23.9955060226       -2.7463166547  IM1       92              0.0000000000
      7898       362  IM1       H1            -20.4123201492       24.7493057948       -2.1032375358  IM1       92              0.0000000000
      7899       362  IM1       H2            -20.7699394710       23.3471159684       -3.2046148806  IM1       92              0.0000000000
      7900       362  IM1       H3            -19.3469582083       24.4342984779       -3.5473404871  IM1       92              0.0000000000
      7901       362  IM1       N1            -19.1255708298       23.1109513355       -1.9768391980  IM1       92              0.0000000000
      7902       362  IM1       DN1           -19.1461370419       23.1282512484       -1.9873696198  IM1       92              0.0000000000
      7903       362  IM1       C2            -19.0176555705       23.1393554173       -0.6079455599  IM1       92              0.0000000000
      7904       362  IM1       DC2           -19.0344017829       23.1843684853       -0.6320657490  IM1       92              0.0000000000
      7905       362  IM1       H4            -19.5645338870       23.8111696386        0.0420381007  IM1       92              0.0000000000
      7906       362  IM1       C3            -18.1749821481       22.1216832800       -0.2739512040  IM1       92              0.0000000000
      7907       362  IM1       DC3           -18.1849814028       22.1617237637       -0.2764381708  IM1       92              0.0000000000
      7908       362  IM1       H5            -17.8272760318       21.7904943968        0.6967719184  IM1       92              0.0000000000
      7909       362  IM1       C4            -18.3591436924       22.0897241345       -2.4320144594  IM1       92              0.0000000000
      7910       362  IM1       DC4           -18.3910263093       22.1142792227       -2.4127710502  IM1       92              0.0000000000
      7911       362  IM1       H6            -18.2623156877       21.8200713989       -3.4836853868  IM1       92              0.0000000000
      7912       362  IM1       N2            -17.7686424921       21.4646862902       -1.4161206653  IM1       92              0.0000000000
      7913       362  IM1       DN2           -17.7878667731       21.4773174252       -1.4033401101  IM1       92              0.0000000000
      7914       362  IM1       H7            -17.1591008026       20.6739781226       -1.4730374683  IM1       92              0.0000000000
      7915       362  IM1       LPN21         -17.5850543618       21.2285674825       -1.4394296130  IM1       92              0.0000000000
      7916       363  IM1       C1             10.6970465158       11.8488416962      -10.9009701137  IM1       93              0.0000000000
      7917       363  IM1       DC1            10.7115932838       11.8418609599      -10.8921935613  IM1       93              0.0000000000
      7918       363  IM1       H1             11.0947066993       11.8738073447       -9.8638760501  IM1       93              0.0000000000
      7919       363  IM1       H2             10.8322948899       10.8335885343      -11.3314232408  IM1       93              0.0000000000
      7920       363  IM1       H3              9.6193127586       12.1185280324      -10.8920130073  IM1       93              0.0000000000
      7921       363  IM1       N1             11.3979371490       12.7922595157      -11.7183022800  IM1       93              0.0000000000
      7922       363  IM1       DN1            11.4020722080       12.7893894548      -11.7119587656  IM1       93              0.0000000000
      7923       363  IM1       C2             12.4717229026       13.5635792718      -11.3290012164  IM1       93              0.0000000000
      7924       363  IM1       DC2            12.4635137347       13.5500795078      -11.3240419185  IM1       93              0.0000000000
      7925       363  IM1       H4             12.8881577326       13.5700718049      -10.3292868175  IM1       93              0.0000000000
      7926       363  IM1       C3             12.8524594808       14.2577537297      -12.4355870691  IM1       93              0.0000000000
      7927       363  IM1       DC3            12.8619488258       14.2586797153      -12.4294786840  IM1       93              0.0000000000
      7928       363  IM1       H5             13.6557226531       14.9706178599      -12.5751650329  IM1       93              0.0000000000
      7929       363  IM1       C4             11.1721720448       13.0327346017      -13.0321774151  IM1       93              0.0000000000
      7930       363  IM1       DC4            11.1915614568       13.0179083109      -13.0044951454  IM1       93              0.0000000000
      7931       363  IM1       H6             10.3667051713       12.5706669174      -13.6029808583  IM1       93              0.0000000000
      7932       363  IM1       N2             12.0605570835       13.9065230256      -13.5063535948  IM1       93              0.0000000000
      7933       363  IM1       DN2            12.0757144120       13.9065124774      -13.4910578025  IM1       93              0.0000000000
      7934       363  IM1       H7             12.1171703951       14.2421659920      -14.4466401108  IM1       93              0.0000000000
      7935       363  IM1       LPN21          12.0782327942       14.0024467787      -13.7900544986  IM1       93              0.0000000000
      7936       364  IM1       C1            -13.7326201852       14.9167711485       13.4492244427  IM1       94              0.0000000000
      7937       364  IM1       DC1           -13.7341959785       14.9429377385       13.4326024398  IM1       94              0.0000000000
      7938       364  IM1       H1            -14.2700396483       15.2487353258       12.5352763555  IM1       94              0.0000000000
      7939       364  IM1       H2            -12.6343212689       14.9360080790       13.2828200225  IM1       94              0.0000000000
      7940       364  IM1       H3            -14.0008186866       15.5771070127       14.3014844451  IM1       94              0.0000000000
      7941       364  IM1       N1            -14.1169520621       13.5778785072       13.7760959109  IM1       94              0.0000000000
      7942       364  IM1       DN1           -14.1132511584       13.5931032484       13.7664100240  IM1       94              0.0000000000
      7943       364  IM1       C2            -15.2062141829       12.8983006504       13.2752418237  IM1       94              0.0000000000
      7944       364  IM1       DC2           -15.1878800517       12.9026328474       13.2727249892  IM1       94              0.0000000000
      7945       364  IM1       H4            -15.8158159821       13.2632234454       12.4578643099  IM1       94              0.0000000000
      7946       364  IM1       C3            -15.3176509225       11.7626224450       14.0162194325  IM1       94              0.0000000000
      7947       364  IM1       DC3           -15.3331203851       11.7544582518       14.0057506117  IM1       94              0.0000000000
      7948       364  IM1       H5            -16.0319899402       10.9514877411       13.9478874489  IM1       94              0.0000000000
      7949       364  IM1       C4            -13.5925185897       12.8318862914       14.7772085278  IM1       94              0.0000000000
      7950       364  IM1       DC4           -13.6021347319       12.8434636725       14.7540591661  IM1       94              0.0000000000
      7951       364  IM1       H6            -12.7324146459       13.1425290124       15.3703546360  IM1       94              0.0000000000
      7952       364  IM1       N2            -14.2927207041       11.7076476454       14.9410866969  IM1       94              0.0000000000
      7953       364  IM1       DN2           -14.2969129683       11.7050417039       14.9262770177  IM1       94              0.0000000000
      7954       364  IM1       H7            -14.1245116760       10.9975681053       15.6248211267  IM1       94              0.0000000000
      7955       364  IM1       LPN21         -14.2331866828       11.4916338533       15.1405703853  IM1       94              0.0000000000
      7956       365  IM1       C1            -27.8200115570        9.8286723445      -11.6289867408  IM1       95              0.0000000000
      7957       365  IM1       DC1           -27.8516129628        9.8258408024      -11.6297934842  IM1       95              0.0000000000
      7958       365  IM1       H1            -28.8032315775        9.3222813684      -11.5233100100  IM1       95              0.0000000000
      7959       365  IM1       H2            -27.7945850433       10.4194469819      -12.5695503060  IM1       95              0.0000000000
      7960       365  IM1       H3            -27.6504024975       10.4920076944      -10.7540353239  IM1       95              0.0000000000
      7961       365  IM1       N1            -26.7723771937        8.8591346196      -11.6704677727  IM1       95              0.0000000000
      7962       365  IM1       DN1           -26.7976785502        8.8655418568      -11.6684857601  IM1       95              0.0000000000
      7963       365  IM1       C2            -26.9290861471        7.4899011023      -11.6197481149  IM1       95              0.0000000000
      7964       365  IM1       DC2           -26.9603232309        7.5109402940      -11.6214625326  IM1       95              0.0000000000
      7965       365  IM1       H4            -27.8807709574        6.9743151060      -11.5829228214  IM1       95              0.0000000000
      7966       365  IM1       C3            -25.6681483883        6.9755110848      -11.6315009899  IM1       95              0.0000000000
      7967       365  IM1       DC3           -25.7060038575        6.9582359376      -11.6265600538  IM1       95              0.0000000000
      7968       365  IM1       H5            -25.3176464125        5.9510223444      -11.6100490522  IM1       95              0.0000000000
      7969       365  IM1       C4            -25.4448400734        9.1243179131      -11.7111398005  IM1       95              0.0000000000
      7970       365  IM1       DC4           -25.4910630094        9.1117923010      -11.7010290157  IM1       95              0.0000000000
      7971       365  IM1       H6            -25.0206190393       10.1267925177      -11.7675417839  IM1       95              0.0000000000
      7972       365  IM1       N2            -24.7475145058        7.9930444507      -11.6780509294  IM1       95              0.0000000000
      7973       365  IM1       DN2           -24.7847286754        7.9777009966      -11.6710482029  IM1       95              0.0000000000
      7974       365  IM1       H7            -23.7513529746        7.9075760395      -11.6969547628  IM1       95              0.0000000000
      7975       365  IM1       LPN21         -24.4482597081        7.9720597457      -11.6805425578  IM1       95              0.0000000000
      7976       366  IM1       C1             -0.2140485626       26.3655452542       14.8839688468  IM1       96              0.0000000000
      7977       366  IM1       DC1            -0.2083345311       26.3732462969       14.8637214716  IM1       96              0.0000000000
      7978       366  IM1       H1             -1.1457164596       26.9580641859       14.7605295995  IM1       96              0.0000000000
      7979       366  IM1       H2              0.0355420782       26.2994200859       15.9645487723  IM1       96              0.0000000000
      7980       366  IM1       H3             -0.3607954701       25.3460871042       14.4674458276  IM1       96              0.0000000000
      7981       366  IM1       N1              0.8720183937       26.9985302893       14.1979714110  IM1       96              0.0000000000
      7982       366  IM1       DN1             0.8815972563       26.9950468786       14.1838650057  IM1       96              0.0000000000
      7983       366  IM1       C2              0.8373402905       28.2360017048       13.5917313896  IM1       96              0.0000000000
      7984       366  IM1       DC2             0.8316169425       28.2088725770       13.5789877846  IM1       96              0.0000000000
      7985       366  IM1       H4             -0.0317670988       28.8820073201       13.5769634890  IM1       96              0.0000000000
      7986       366  IM1       C3              2.0979812285       28.4620837979       13.1290469243  IM1       96              0.0000000000
      7987       366  IM1       DC3             2.0929099533       28.4482788298       13.1019175387  IM1       96              0.0000000000
      7988       366  IM1       H5              2.5056237524       29.3226073386       12.6130858709  IM1       96              0.0000000000
      7989       366  IM1       C4              2.1317138470       26.5099687284       14.0709347003  IM1       96              0.0000000000
      7990       366  IM1       DC4             2.1161084528       26.5115931133       14.0614997152  IM1       96              0.0000000000
      7991       366  IM1       H6              2.4572700549       25.5591842792       14.4929798240  IM1       96              0.0000000000
      7992       366  IM1       N2              2.8969562042       27.3648703397       13.3934614971  IM1       96              0.0000000000
      7993       366  IM1       DN2             2.8868505855       27.3656776479       13.3827108129  IM1       96              0.0000000000
      7994       366  IM1       H7              3.8705276537       27.2613570612       13.1898844012  IM1       96              0.0000000000
      7995       366  IM1       LPN21           3.1838127808       27.3203865254       13.3177350501  IM1       96              0.0000000000
      7996       367  IM1       C1             19.6557800274        5.1343814235       25.8671813850  IM1       97              0.0000000000
      7997       367  IM1       DC1            19.6372271838        5.1123780801       25.8924766940  IM1       97              0.0000000000
      7998       367  IM1       H1             20.2507154464        4.9146570992       26.7793732887  IM1       97              0.0000000000
      7999       367  IM1       H2             20.2871158332        4.9107509179       24.9807698004  IM1       97              0.0000000000
      8000       367  IM1       H3             18.7283773448        4.5229367427       25.8476706564  IM1       97              0.0000000000
      8001       367  IM1       N1             19.2971184012        6.5232143538       25.8459438415  IM1       97              0.0000000000
      8002       367  IM1       DN1            19.2804303641        6.5095399509       25.8470162055  IM1       97              0.0000000000
      8003       367  IM1       C2             19.6917013540        7.4666636978       26.7689961780  IM1       97              0.0000000000
      8004       367  IM1       DC2            19.6673946620        7.4442509085       26.7689374569  IM1       97              0.0000000000
      8005       367  IM1       H4             20.3520700527        7.2589480377       27.6018565423  IM1       97              0.0000000000
      8006       367  IM1       C3             19.1913702215        8.6528173701       26.3265013023  IM1       97              0.0000000000
      8007       367  IM1       DC3            19.1820733496        8.6577744340       26.3349434144  IM1       97              0.0000000000
      8008       367  IM1       H5             19.3060950549        9.6479273068       26.7381849528  IM1       97              0.0000000000
      8009       367  IM1       C4             18.5635062629        7.1559826999       24.8952326307  IM1       97              0.0000000000
      8010       367  IM1       DC4            18.5646006576        7.1467054997       24.9068094166  IM1       97              0.0000000000
      8011       367  IM1       H6             18.1532424662        6.6587693552       24.0162772809  IM1       97              0.0000000000
      8012       367  IM1       N2             18.4717982703        8.4580828070       25.1600889215  IM1       97              0.0000000000
      8013       367  IM1       DN2            18.4715541031        8.4588122165       25.1636806913  IM1       97              0.0000000000
      8014       367  IM1       H7             18.0226573015        9.1532759625       24.5988591408  IM1       97              0.0000000000
      8015       367  IM1       LPN21          18.3235894910        8.6603250368       24.9953702575  IM1       97              0.0000000000
      8016       368  IM1       C1             17.7450334661      -16.9080523835       10.0313220180  IM1       98              0.0000000000
      8017       368  IM1       DC1            17.7262323035      -16.8853221056       10.0233862827  IM1       98              0.0000000000
      8018       368  IM1       H1             18.4910430084      -16.6912274626        9.2371068604  IM1       98              0.0000000000
      8019       368  IM1       H2             16.9926354069      -17.6233955620        9.6357183040  IM1       98              0.0000000000
      8020       368  IM1       H3             18.2639725211      -17.3585461534       10.9042931635  IM1       98              0.0000000000
      8021       368  IM1       N1             17.0780990568      -15.7071413430       10.4487556891  IM1       98              0.0000000000
      8022       368  IM1       DN1            17.0663594392      -15.6812702643       10.4516927839  IM1       98              0.0000000000
      8023       368  IM1       C2             17.3796291987      -14.4225725205       10.0510852142  IM1       98              0.0000000000
      8024       368  IM1       DC2            17.3741806071      -14.4146839617       10.0427691676  IM1       98              0.0000000000
      8025       368  IM1       H4             18.1759886721      -14.1760528566        9.3597613795  IM1       98              0.0000000000
      8026       368  IM1       C3             16.5281717517      -13.6072786701       10.7222328610  IM1       98              0.0000000000
      8027       368  IM1       DC3            16.5153163288      -13.5883556925       10.7242702558  IM1       98              0.0000000000
      8028       368  IM1       H5             16.4481898576      -12.5274068606       10.7030293861  IM1       98              0.0000000000
      8029       368  IM1       C4             16.0590634930      -15.6293927796       11.3407249058  IM1       98              0.0000000000
      8030       368  IM1       DC4            16.0672737597      -15.6246485082       11.3351461885  IM1       98              0.0000000000
      8031       368  IM1       H6             15.6182369815      -16.5021104625       11.8225296720  IM1       98              0.0000000000
      8032       368  IM1       N2             15.6929807773      -14.3580088968       11.5259298109  IM1       98              0.0000000000
      8033       368  IM1       DN2            15.6919672433      -14.3464481840       11.5223468976  IM1       98              0.0000000000
      8034       368  IM1       H7             14.9760897874      -14.0249372523       12.1384088627  IM1       98              0.0000000000
      8035       368  IM1       LPN21          15.4733262134      -14.2628604840       11.7067574971  IM1       98              0.0000000000
      8036       369  IM1       C1            -16.7917050238        1.3164704430      -22.8215524680  IM1       99              0.0000000000
      8037       369  IM1       DC1           -16.7792855342        1.3516573375      -22.7891875270  IM1       99              0.0000000000
      8038       369  IM1       H1            -15.7605268719        0.9117145313      -22.9062004010  IM1       99              0.0000000000
      8039       369  IM1       H2            -17.2470301413        1.3558867435      -23.8341957374  IM1       99              0.0000000000
      8040       369  IM1       H3            -17.3933791666        0.6630520258      -22.1542042847  IM1       99              0.0000000000
      8041       369  IM1       N1            -16.7740598980        2.6299447843      -22.2700456484  IM1       99              0.0000000000
      8042       369  IM1       DN1           -16.7670931422        2.6672342512      -22.2514300942  IM1       99              0.0000000000
      8043       369  IM1       C2            -15.6532586401        3.3094254896      -21.8618148663  IM1       99              0.0000000000
      8044       369  IM1       DC2           -15.6523424198        3.3233597580      -21.8605423441  IM1       99              0.0000000000
      8045       369  IM1       H4            -14.6598548773        2.8781249593      -21.8660358448  IM1       99              0.0000000000
      8046       369  IM1       C3            -16.0835466722        4.5220939006      -21.4329660543  IM1       99              0.0000000000
      8047       369  IM1       DC3           -16.0875038018        4.5541211145      -21.4235352959  IM1       99              0.0000000000
      8048       369  IM1       H5            -15.5097031152        5.3496384681      -21.0345158544  IM1       99              0.0000000000
      8049       369  IM1       C4            -17.8446235185        3.4344006667      -22.0615471213  IM1       99              0.0000000000
      8050       369  IM1       DC4           -17.8379489385        3.4393017770      -22.0537057649  IM1       99              0.0000000000
      8051       369  IM1       H6            -18.8705916166        3.1429926443      -22.2864267029  IM1       99              0.0000000000
      8052       369  IM1       N2            -17.4581961022        4.5977656179      -21.5433281939  IM1       99              0.0000000000
      8053       369  IM1       DN2           -17.4557438022        4.6082619711      -21.5322955663  IM1       99              0.0000000000
      8054       369  IM1       H7            -18.0390224756        5.3726484390      -21.2939342531  IM1       99              0.0000000000
      8055       369  IM1       LPN21         -17.6393961553        4.8248751348      -21.4685765510  IM1       99              0.0000000000
      8056       370  IM1       C1             16.6247250096      -24.5869983673        2.8572269858  IM1       100             0.0000000000
      8057       370  IM1       DC1            16.6282985644      -24.5828647383        2.8413956267  IM1       100             0.0000000000
      8058       370  IM1       H1             15.8109828175      -24.7721626376        2.1238383850  IM1       100             0.0000000000
      8059       370  IM1       H2             17.0118399732      -25.5607019454        3.2265024215  IM1       100             0.0000000000
      8060       370  IM1       H3             17.4365583287      -23.9983621669        2.3789435076  IM1       100             0.0000000000
      8061       370  IM1       N1             16.1141892435      -23.8520962861        3.9740332194  IM1       100             0.0000000000
      8062       370  IM1       DN1            16.1504526488      -23.8420246063        3.9749738149  IM1       100             0.0000000000
      8063       370  IM1       C2             14.8046218534      -23.4886030237        4.1752562293  IM1       100             0.0000000000
      8064       370  IM1       DC2            14.8482652462      -23.4645164575        4.1413233004  IM1       100             0.0000000000
      8065       370  IM1       H4             13.9814428335      -23.7796378243        3.5345035110  IM1       100             0.0000000000
      8066       370  IM1       C3             14.7725032808      -22.8662200460        5.3876873079  IM1       100             0.0000000000
      8067       370  IM1       DC3            14.8120313287      -22.8122884368        5.3744020852  IM1       100             0.0000000000
      8068       370  IM1       H5             13.9276570346      -22.4629055443        5.9321698448  IM1       100             0.0000000000
      8069       370  IM1       C4             16.8353502724      -23.4163910534        5.0368082855  IM1       100             0.0000000000
      8070       370  IM1       DC4            16.8537773587      -23.4131099168        5.0395389916  IM1       100             0.0000000000
      8071       370  IM1       H6             17.9050070854      -23.5958237697        5.1451512718  IM1       100             0.0000000000
      8072       370  IM1       N2             16.0603047299      -22.7745897604        5.9073022394  IM1       100             0.0000000000
      8073       370  IM1       DN2            16.0829326070      -22.7549624130        5.9199549421  IM1       100             0.0000000000
      8074       370  IM1       H7             16.3351303834      -22.3864980994        6.7869929366  IM1       100             0.0000000000
      8075       370  IM1       LPN21          16.1533988923      -22.6415153165        6.1595415490  IM1       100             0.0000000000
      8076       371  IM1       C1             24.6289425107       13.5091705456      -25.8787254302  IM1       101             0.0000000000
      8077       371  IM1       DC1            24.6352303442       13.4806215255      -25.8786159007  IM1       101             0.0000000000
      8078       371  IM1       H1             25.7339892715       13.6223528761      -25.8982809063  IM1       101             0.0000000000
      8079       371  IM1       H2             24.3522698508       12.4705948466      -26.1600326601  IM1       101             0.0000000000
      8080       371  IM1       H3             24.2407954780       13.7671221612      -24.8701998504  IM1       101             0.0000000000
      8081       371  IM1       N1             24.0593129988       14.4130687198      -26.8142405242  IM1       101             0.0000000000
      8082       371  IM1       DN1            24.0452844606       14.3868381442      -26.8241040977  IM1       101             0.0000000000
      8083       371  IM1       C2             24.7538112575       15.2957434645      -27.6062118690  IM1       101             0.0000000000
      8084       371  IM1       DC2            24.7501336331       15.2599650994      -27.6057696739  IM1       101             0.0000000000
      8085       371  IM1       H4             25.8182903321       15.4740901284      -27.5169607227  IM1       101             0.0000000000
      8086       371  IM1       C3             23.8155335962       15.9173652186      -28.3729156171  IM1       101             0.0000000000
      8087       371  IM1       DC3            23.8086872858       15.8965326930      -28.4012066926  IM1       101             0.0000000000
      8088       371  IM1       H5             23.9402816238       16.7264567448      -29.0819274872  IM1       101             0.0000000000
      8089       371  IM1       C4             22.7460949391       14.5008086990      -27.1360066252  IM1       101             0.0000000000
      8090       371  IM1       DC4            22.7380356727       14.4784474734      -27.1447359070  IM1       101             0.0000000000
      8091       371  IM1       H6             21.9686003411       13.9463272006      -26.6105045620  IM1       101             0.0000000000
      8092       371  IM1       N2             22.5567980886       15.3813790535      -28.1170036470  IM1       101             0.0000000000
      8093       371  IM1       DN2            22.5391417916       15.3694527878      -28.1321506688  IM1       101             0.0000000000
      8094       371  IM1       H7             21.6818729490       15.6810605613      -28.4973942277  IM1       101             0.0000000000
      8095       371  IM1       LPN21          22.2943992594       15.4437808730      -28.2483538176  IM1       101             0.0000000000
      8096       372  IM1       C1             -7.7181263659        3.0915598081        6.9183891887  IM1       102             0.0000000000
      8097       372  IM1       DC1            -7.6926164762        3.0826032649        6.8930839940  IM1       102             0.0000000000
      8098       372  IM1       H1             -7.1107017862        4.0113789539        6.7795039133  IM1       102             0.0000000000
      8099       372  IM1       H2             -7.8621150759        2.5836397303        5.9408384504  IM1       102             0.0000000000
      8100       372  IM1       H3             -7.2167284894        2.4165849204        7.6445641484  IM1       102             0.0000000000
      8101       372  IM1       N1             -8.9971247845        3.4372553238        7.4549300503  IM1       102             0.0000000000
      8102       372  IM1       DN1            -8.9727064167        3.4024353427        7.4404872870  IM1       102             0.0000000000
      8103       372  IM1       C2             -9.4995131970        4.7015666016        7.6064212366  IM1       102             0.0000000000
      8104       372  IM1       DC2            -9.4709562438        4.6518731975        7.5892335933  IM1       102             0.0000000000
      8105       372  IM1       H4             -8.9090200966        5.6067258628        7.5364668927  IM1       102             0.0000000000
      8106       372  IM1       C3            -10.7973011574        4.5618759773        8.0042594003  IM1       102             0.0000000000
      8107       372  IM1       DC3           -10.7774036888        4.5400471658        7.9927329322  IM1       102             0.0000000000
      8108       372  IM1       H5            -11.5172546687        5.3177300291        8.2927738607  IM1       102             0.0000000000
      8109       372  IM1       C4             -9.9849461615        2.5722580070        7.7647370548  IM1       102             0.0000000000
      8110       372  IM1       DC4            -9.9711471018        2.5806876775        7.7380338952  IM1       102             0.0000000000
      8111       372  IM1       H6             -9.8623753285        1.4893813953        7.7434148881  IM1       102             0.0000000000
      8112       372  IM1       N2            -11.1071607197        3.2164636230        8.0788404633  IM1       102             0.0000000000
      8113       372  IM1       DN2           -11.1104569208        3.2096155918        8.0614236640  IM1       102             0.0000000000
      8114       372  IM1       H7            -11.9754467959        2.8084086234        8.3609227334  IM1       102             0.0000000000
      8115       372  IM1       LPN21         -11.3689093070        3.0882421031        8.1498821333  IM1       102             0.0000000000
      8116       373  IM1       C1            -26.6177834813       -6.5706070442       13.7370757399  IM1       103             0.0000000000
      8117       373  IM1       DC1           -26.5922037079       -6.5818761709       13.7025667441  IM1       103             0.0000000000
      8118       373  IM1       H1            -25.5896226605       -6.8614917924       14.0413657162  IM1       103             0.0000000000
      8119       373  IM1       H2            -27.1007348695       -6.0275853842       14.5774366354  IM1       103             0.0000000000
      8120       373  IM1       H3            -26.5991710133       -5.9038029779       12.8486237639  IM1       103             0.0000000000
      8121       373  IM1       N1            -27.3959126773       -7.7266867389       13.4515201326  IM1       103             0.0000000000
      8122       373  IM1       DN1           -27.3836442653       -7.7265360822       13.4451246051  IM1       103             0.0000000000
      8123       373  IM1       C2            -26.8758825842       -8.9735071724       13.2031373680  IM1       103             0.0000000000
      8124       373  IM1       DC2           -26.8637576271       -8.9544852309       13.1932614821  IM1       103             0.0000000000
      8125       373  IM1       H4            -25.8188357177       -9.2017732681       13.2617506048  IM1       103             0.0000000000
      8126       373  IM1       C3            -27.9438895020       -9.7957191548       13.0168594512  IM1       103             0.0000000000
      8127       373  IM1       DC3           -27.9251205192       -9.7967371744       13.0125027491  IM1       103             0.0000000000
      8128       373  IM1       H5            -27.9832699269      -10.8687011132       12.8752688476  IM1       103             0.0000000000
      8129       373  IM1       C4            -28.7467144843       -7.8133685493       13.3680537744  IM1       103             0.0000000000
      8130       373  IM1       DC4           -28.7067579676       -7.8207716000       13.3541568017  IM1       103             0.0000000000
      8131       373  IM1       H6            -29.4235152479       -6.9770408230       13.5429727862  IM1       103             0.0000000000
      8132       373  IM1       N2            -29.1130310200       -9.0641460525       13.0837775336  IM1       103             0.0000000000
      8133       373  IM1       DN2           -29.0968063942       -9.0727779547       13.0702263376  IM1       103             0.0000000000
      8134       373  IM1       H7            -30.0497574543       -9.4069673826       13.0129458823  IM1       103             0.0000000000
      8135       373  IM1       LPN21         -29.3947195931       -9.1593425919       13.0439131806  IM1       103             0.0000000000
      8136       374  IM1       C1             -2.2072034152       -6.3357142578       24.1326371146  IM1       104             0.0000000000
      8137       374  IM1       DC1            -2.2073527507       -6.3376526475       24.1565102359  IM1       104             0.0000000000
      8138       374  IM1       H1             -2.3412564130       -5.8612299815       25.1282351591  IM1       104             0.0000000000
      8139       374  IM1       H2             -1.6179658404       -7.2726211823       24.2292057311  IM1       104             0.0000000000
      8140       374  IM1       H3             -3.2008416037       -6.5516291680       23.6849933933  IM1       104             0.0000000000
      8141       374  IM1       N1             -1.5058117685       -5.4469325678       23.2623972050  IM1       104             0.0000000000
      8142       374  IM1       DN1            -1.5111859347       -5.4580816661       23.2706919646  IM1       104             0.0000000000
      8143       374  IM1       C2             -0.8792311703       -4.2661554452       23.6066273686  IM1       104             0.0000000000
      8144       374  IM1       DC2            -0.8987825488       -4.2894785533       23.6468293886  IM1       104             0.0000000000
      8145       374  IM1       H4             -0.9839044000       -3.7752681153       24.5662950946  IM1       104             0.0000000000
      8146       374  IM1       C3             -0.2326592092       -3.8505411846       22.4799685465  IM1       104             0.0000000000
      8147       374  IM1       DC3            -0.2462901362       -3.8599016215       22.5223739976  IM1       104             0.0000000000
      8148       374  IM1       H5              0.3356219923       -2.9495762077       22.2845009368  IM1       104             0.0000000000
      8149       374  IM1       C4             -1.2245232230       -5.7065926134       21.9668149878  IM1       104             0.0000000000
      8150       374  IM1       DC4            -1.2269850110       -5.7144704859       21.9932396271  IM1       104             0.0000000000
      8151       374  IM1       H6             -1.5859359833       -6.5833234503       21.4293916385  IM1       104             0.0000000000
      8152       374  IM1       N2             -0.4412179905       -4.7649682217       21.4603410118  IM1       104             0.0000000000
      8153       374  IM1       DN2            -0.4449828833       -4.7688918621       21.4779689337  IM1       104             0.0000000000
      8154       374  IM1       H7             -0.0992234415       -4.7120474668       20.5221304151  IM1       104             0.0000000000
      8155       374  IM1       LPN21          -0.3355241104       -4.7600105042       21.1796201100  IM1       104             0.0000000000
      8156       375  IM1       C1             17.8511753837        3.7079395427      -20.6468099321  IM1       105             0.0000000000
      8157       375  IM1       DC1            17.8519226076        3.6903730790      -20.6583310455  IM1       105             0.0000000000
      8158       375  IM1       H1             18.5497871787        3.0490628503      -21.2055084760  IM1       105             0.0000000000
      8159       375  IM1       H2             17.1437025110        3.0934423640      -20.0499880545  IM1       105             0.0000000000
      8160       375  IM1       H3             18.4384471586        4.3729343276      -19.9780687268  IM1       105             0.0000000000
      8161       375  IM1       N1             17.1022277768        4.5299990359      -21.5538788348  IM1       105             0.0000000000
      8162       375  IM1       DN1            17.1106597684        4.5205346511      -21.5537432712  IM1       105             0.0000000000
      8163       375  IM1       C2             17.2882156513        4.6039602330      -22.9184006573  IM1       105             0.0000000000
      8164       375  IM1       DC2            17.2808365889        4.5952366320      -22.9020634018  IM1       105             0.0000000000
      8165       375  IM1       H4             18.0075549914        4.0004342019      -23.4580266792  IM1       105             0.0000000000
      8166       375  IM1       C3             16.3999920456        5.5259287469      -23.3711469288  IM1       105             0.0000000000
      8167       375  IM1       DC3            16.3961574515        5.5235269863      -23.3792469717  IM1       105             0.0000000000
      8168       375  IM1       H5             16.2183276591        5.8750556089      -24.3801055429  IM1       105             0.0000000000
      8169       375  IM1       C4             16.1084028219        5.3922476674      -21.2260096433  IM1       105             0.0000000000
      8170       375  IM1       DC4            16.1304928731        5.3849246916      -21.2420761851  IM1       105             0.0000000000
      8171       375  IM1       H6             15.7878050868        5.5764597323      -20.2006399503  IM1       105             0.0000000000
      8172       375  IM1       N2             15.6426631754        6.0061744273      -22.3180555137  IM1       105             0.0000000000
      8173       375  IM1       DN2            15.6381808540        6.0079924253      -22.3281707193  IM1       105             0.0000000000
      8174       375  IM1       H7             14.9395719123        6.7165541168      -22.3500457089  IM1       105             0.0000000000
      8175       375  IM1       LPN21          15.4191342800        6.2061366391      -22.3251228181  IM1       105             0.0000000000
      8176       376  IM1       C1             11.0263616540       28.8256404725       -1.5386632337  IM1       106             0.0000000000
      8177       376  IM1       DC1            11.0152996223       28.8249348223       -1.5443135211  IM1       106             0.0000000000
      8178       376  IM1       H1             10.3705906171       29.6972761645       -1.3276263431  IM1       106             0.0000000000
      8179       376  IM1       H2             11.8128371367       29.1201852459       -2.2660013203  IM1       106             0.0000000000
      8180       376  IM1       H3             11.4917896465       28.4779675275       -0.5916567357  IM1       106             0.0000000000
      8181       376  IM1       N1             10.2564370907       27.7551310345       -2.0989969476  IM1       106             0.0000000000
      8182       376  IM1       DN1            10.2737819156       27.7355033403       -2.1039907916  IM1       106             0.0000000000
      8183       376  IM1       C2              8.8946101170       27.7345420884       -2.3017452258  IM1       106             0.0000000000
      8184       376  IM1       DC2             8.9288873838       27.7468269467       -2.2953853811  IM1       106             0.0000000000
      8185       376  IM1       H4              8.2293052187       28.5602667036       -2.0816605777  IM1       106             0.0000000000
      8186       376  IM1       C3              8.6087142630       26.5004927078       -2.8090708013  IM1       106             0.0000000000
      8187       376  IM1       DC3             8.6301223196       26.5048591142       -2.8085868838  IM1       106             0.0000000000
      8188       376  IM1       H5              7.6584335637       26.0769643414       -3.1098685996  IM1       106             0.0000000000
      8189       376  IM1       C4             10.7492806367       26.5547162033       -2.4832424149  IM1       106             0.0000000000
      8190       376  IM1       DC4            10.7639893716       26.5453862515       -2.4743580070  IM1       106             0.0000000000
      8191       376  IM1       H6             11.8097359618       26.3057564795       -2.4438271984  IM1       106             0.0000000000
      8192       376  IM1       N2              9.7775738299       25.7587018705       -2.9169689235  IM1       106             0.0000000000
      8193       376  IM1       DN2             9.7907147967       25.7497515221       -2.9124875129  IM1       106             0.0000000000
      8194       376  IM1       H7              9.8719533588       24.8230425805       -3.2570192109  IM1       106             0.0000000000
      8195       376  IM1       LPN21           9.8136398882       25.4777894984       -3.0159006105  IM1       106             0.0000000000
      8196       377  IM1       C1              8.7484522599       -1.2546091921      -12.9966259216  IM1       107             0.0000000000
      8197       377  IM1       DC1             8.7793112876       -1.2290824633      -13.0062382020  IM1       107             0.0000000000
      8198       377  IM1       H1              8.3656396235       -0.6468503685      -12.1490383453  IM1       107             0.0000000000
      8199       377  IM1       H2              9.6405446568       -1.8334139258      -12.6749471430  IM1       107             0.0000000000
      8200       377  IM1       H3              7.9411895850       -1.9420835127      -13.3283291508  IM1       107             0.0000000000
      8201       377  IM1       N1              9.1107913376       -0.4066990209      -14.0940045880  IM1       107             0.0000000000
      8202       377  IM1       DN1             9.1330601006       -0.3818431080      -14.1146051407  IM1       107             0.0000000000
      8203       377  IM1       C2              9.1376277911        0.9755224632      -14.0977627537  IM1       107             0.0000000000
      8204       377  IM1       DC2             9.1788640354        0.9918635715      -14.0861481825  IM1       107             0.0000000000
      8205       377  IM1       H4              8.7568776672        1.5734523083      -13.2789842467  IM1       107             0.0000000000
      8206       377  IM1       C3              9.4658513583        1.3341947465      -15.3716091725  IM1       107             0.0000000000
      8207       377  IM1       DC3             9.5097298865        1.3506956049      -15.3655571599  IM1       107             0.0000000000
      8208       377  IM1       H5              9.4972512595        2.3155978037      -15.8285020325  IM1       107             0.0000000000
      8209       377  IM1       C4              9.4603834716       -0.8311147071      -15.3346968354  IM1       107             0.0000000000
      8210       377  IM1       DC4             9.4836762595       -0.8265858558      -15.3271276404  IM1       107             0.0000000000
      8211       377  IM1       H6              9.5183625561       -1.8823441816      -15.6169290405  IM1       107             0.0000000000
      8212       377  IM1       N2              9.7318631118        0.2085209640      -16.1280897317  IM1       107             0.0000000000
      8213       377  IM1       DN2             9.7499034617        0.2156718441      -16.1233888790  IM1       107             0.0000000000
      8214       377  IM1       H7              9.9855477279        0.1748601091      -17.0947908561  IM1       107             0.0000000000
      8215       377  IM1       LPN21           9.8300233890        0.1927557032      -16.4111374601  IM1       107             0.0000000000
      8216       378  IM1       C1              7.0873537452       -3.0674022927       11.1425128921  IM1       108             0.0000000000
      8217       378  IM1       DC1             7.1007486206       -3.0974132286       11.1249936579  IM1       108             0.0000000000
      8218       378  IM1       H1              7.2077214617       -2.0032718215       10.8467782909  IM1       108             0.0000000000
      8219       378  IM1       H2              7.8640819079       -3.3394700218       11.8888328717  IM1       108             0.0000000000
      8220       378  IM1       H3              6.0747586811       -3.1880731821       11.5834332627  IM1       108             0.0000000000
      8221       378  IM1       N1              7.1977143338       -3.9292401882        9.9996713720  IM1       108             0.0000000000
      8222       378  IM1       DN1             7.1987492197       -3.9630014683        9.9935944018  IM1       108             0.0000000000
      8223       378  IM1       C2              7.4292228408       -3.5170199426        8.7083516096  IM1       108             0.0000000000
      8224       378  IM1       DC2             7.4242510036       -3.5517149971        8.7228449268  IM1       108             0.0000000000
      8225       378  IM1       H4              7.5612320359       -2.4780008260        8.4328487096  IM1       108             0.0000000000
      8226       378  IM1       C3              7.3825572188       -4.6347513243        7.9353953125  IM1       108             0.0000000000
      8227       378  IM1       DC3             7.3993467805       -4.6638307330        7.9250717739  IM1       108             0.0000000000
      8228       378  IM1       H5              7.4686958623       -4.7310679764        6.8601315139  IM1       108             0.0000000000
      8229       378  IM1       C4              7.0302985419       -5.2759813628        9.9744987261  IM1       108             0.0000000000
      8230       378  IM1       DC4             7.0314008569       -5.2897093175        9.9796656687  IM1       108             0.0000000000
      8231       378  IM1       H6              6.8169471888       -5.8709322917       10.8625384735  IM1       108             0.0000000000
      8232       378  IM1       N2              7.1501462334       -5.7456673405        8.7308952388  IM1       108             0.0000000000
      8233       378  IM1       DN2             7.1533195635       -5.7597121431        8.7307293503  IM1       108             0.0000000000
      8234       378  IM1       H7              7.0504273551       -6.6944910804        8.4312460174  IM1       108             0.0000000000
      8235       378  IM1       LPN21           7.1296313585       -6.0336310631        8.6493107159  IM1       108             0.0000000000
      8236       379  IM1       C1              9.8220156424       16.4957508048        6.8871360157  IM1       109             0.0000000000
      8237       379  IM1       DC1             9.8521010669       16.4466534070        6.8999699349  IM1       109             0.0000000000
      8238       379  IM1       H1              8.7256512382       16.3742954697        6.7546418758  IM1       109             0.0000000000
      8239       379  IM1       H2             10.1905988860       17.1553126825        6.0726143627  IM1       109             0.0000000000
      8240       379  IM1       H3             10.0229179002       16.9818057079        7.8657625604  IM1       109             0.0000000000
      8241       379  IM1       N1             10.4875599890       15.2156475507        6.8281477755  IM1       109             0.0000000000
      8242       379  IM1       DN1            10.5139389141       15.1734590200        6.8296109706  IM1       109             0.0000000000
      8243       379  IM1       C2              9.8747785124       13.9899491983        6.6704260964  IM1       109             0.0000000000
      8244       379  IM1       DC2             9.9365689314       13.9504429091        6.6886132152  IM1       109             0.0000000000
      8245       379  IM1       H4              8.8032828944       13.8893963798        6.5492845620  IM1       109             0.0000000000
      8246       379  IM1       C3             10.8484914116       13.0546905615        6.7652294620  IM1       109             0.0000000000
      8247       379  IM1       DC3            10.8999614441       13.0020720604        6.7779889183  IM1       109             0.0000000000
      8248       379  IM1       H5             10.7672974497       11.9751857405        6.7341508191  IM1       109             0.0000000000
      8249       379  IM1       C4             11.8129054033       14.9785814094        7.0073130251  IM1       109             0.0000000000
      8250       379  IM1       DC4            11.8231694785       14.9602620380        7.0015765628  IM1       109             0.0000000000
      8251       379  IM1       H6             12.5398401187       15.7775498568        7.1533107631  IM1       109             0.0000000000
      8252       379  IM1       N2             12.0744938113       13.6643352931        6.9674639755  IM1       109             0.0000000000
      8253       379  IM1       DN2            12.1002803021       13.6430797661        6.9687401673  IM1       109             0.0000000000
      8254       379  IM1       H7             12.9660565675       13.2259795479        7.0813063764  IM1       109             0.0000000000
      8255       379  IM1       LPN21          12.3443304363       13.5365840418        6.9969226511  IM1       109             0.0000000000
      8256       380  IM1       C1            -19.6394283215      -11.2907458914       -8.0993529906  IM1       110             0.0000000000
      8257       380  IM1       DC1           -19.6680110761      -11.2988094490       -8.0803166722  IM1       110             0.0000000000
      8258       380  IM1       H1            -20.4330397091      -10.5265739741       -7.9560238312  IM1       110             0.0000000000
      8259       380  IM1       H2            -18.7272674330      -10.9866418832       -7.5427523557  IM1       110             0.0000000000
      8260       380  IM1       H3            -19.9947355312      -12.2885734206       -7.7640650416  IM1       110             0.0000000000
      8261       380  IM1       N1            -19.3163416473      -11.4169851777       -9.4782860853  IM1       110             0.0000000000
      8262       380  IM1       DN1           -19.3233893423      -11.4225142739       -9.4588309690  IM1       110             0.0000000000
      8263       380  IM1       C2            -19.9017301854      -10.7246597051      -10.5135923331  IM1       110             0.0000000000
      8264       380  IM1       DC2           -19.9224664124      -10.7411314997      -10.4751144253  IM1       110             0.0000000000
      8265       380  IM1       H4            -20.6274489904       -9.9311897560      -10.3846479382  IM1       110             0.0000000000
      8266       380  IM1       C3            -19.2747272888      -11.1538395946      -11.6450501179  IM1       110             0.0000000000
      8267       380  IM1       DC3           -19.2944094015      -11.1501745687      -11.6262917767  IM1       110             0.0000000000
      8268       380  IM1       H5            -19.3841518600      -10.8227133556      -12.6703650340  IM1       110             0.0000000000
      8269       380  IM1       C4            -18.3808648855      -12.2470809610      -10.0029680648  IM1       110             0.0000000000
      8270       380  IM1       DC4           -18.4055288708      -12.2387043799       -9.9904782345  IM1       110             0.0000000000
      8271       380  IM1       H6            -17.7271085191      -12.8799588195       -9.4028278897  IM1       110             0.0000000000
      8272       380  IM1       N2            -18.3328887224      -12.1162826198      -11.3239383023  IM1       110             0.0000000000
      8273       380  IM1       DN2           -18.3466817072      -12.1111075326      -11.3180336508  IM1       110             0.0000000000
      8274       380  IM1       H7            -17.6957838594      -12.5721511873      -11.9454535817  IM1       110             0.0000000000
      8275       380  IM1       LPN21         -18.1511782623      -12.2689644486      -11.5074309938  IM1       110             0.0000000000
      8276       381  IM1       C1              3.7905508689      -22.4465669852       -9.0044286166  IM1       111             0.0000000000
      8277       381  IM1       DC1             3.8100611883      -22.4418371145       -8.9986930821  IM1       111             0.0000000000
      8278       381  IM1       H1              4.6431664184      -21.9562371778       -8.4877619883  IM1       111             0.0000000000
      8279       381  IM1       H2              4.1515477363      -23.3315814613       -9.5707780139  IM1       111             0.0000000000
      8280       381  IM1       H3              3.0149987219      -22.7499866875       -8.2690536418  IM1       111             0.0000000000
      8281       381  IM1       N1              3.2229926802      -21.5149933207       -9.9061698343  IM1       111             0.0000000000
      8282       381  IM1       DN1             3.2349046177      -21.5161712703       -9.9109757463  IM1       111             0.0000000000
      8283       381  IM1       C2              3.7032098563      -20.2503487828      -10.1650061134  IM1       111             0.0000000000
      8284       381  IM1       DC2             3.7276250573      -20.2685210263      -10.1715441413  IM1       111             0.0000000000
      8285       381  IM1       H4              4.4637274516      -19.7673806283       -9.5639705496  IM1       111             0.0000000000
      8286       381  IM1       C3              2.9322801281      -19.7666474724      -11.1753246185  IM1       111             0.0000000000
      8287       381  IM1       DC3             2.9636361039      -19.7647524410      -11.1893901863  IM1       111             0.0000000000
      8288       381  IM1       H5              2.9141981082      -18.7860072975      -11.6345706178  IM1       111             0.0000000000
      8289       381  IM1       C4              2.2061051924      -21.7633995302      -10.7608758748  IM1       111             0.0000000000
      8290       381  IM1       DC4             2.2315972219      -21.7584516971      -10.7516688244  IM1       111             0.0000000000
      8291       381  IM1       H6              1.6374058199      -22.6932807819      -10.7622475496  IM1       111             0.0000000000
      8292       381  IM1       N2              2.0253318407      -20.7296362268      -11.5756668302  IM1       111             0.0000000000
      8293       381  IM1       DN2             2.0463005258      -20.7258474926      -11.5734768889  IM1       111             0.0000000000
      8294       381  IM1       H7              1.3091985370      -20.6393885113      -12.2677711873  IM1       111             0.0000000000
      8295       381  IM1       LPN21           1.8254146017      -20.7166777391      -11.7989719469  IM1       111             0.0000000000
      8296       382  IM1       C1             -7.7864169198       10.8480968509      -14.5067645608  IM1       112             0.0000000000
      8297       382  IM1       DC1            -7.8093545439       10.8074370995      -14.5161326199  IM1       112             0.0000000000
      8298       382  IM1       H1             -8.3828654297        9.9319407197      -14.7048254562  IM1       112             0.0000000000
      8299       382  IM1       H2             -7.0832142132       10.6713922624      -13.6649792899  IM1       112             0.0000000000
      8300       382  IM1       H3             -7.2218202168       11.1416201787      -15.4174761614  IM1       112             0.0000000000
      8301       382  IM1       N1             -8.6423524525       11.9330126209      -14.1521554670  IM1       112             0.0000000000
      8302       382  IM1       DN1            -8.6446573922       11.9166527231      -14.1580808486  IM1       112             0.0000000000
      8303       382  IM1       C2            -10.0149508510       11.8646344426      -14.0596899584  IM1       112             0.0000000000
      8304       382  IM1       DC2           -10.0048947363       11.8277430165      -14.0662459084  IM1       112             0.0000000000
      8305       382  IM1       H4            -10.5936709278       10.9676048851      -14.2422003624  IM1       112             0.0000000000
      8306       382  IM1       C3            -10.4264181264       13.1156683721      -13.7084220680  IM1       112             0.0000000000
      8307       382  IM1       DC3           -10.4245344013       13.0877964741      -13.7207437583  IM1       112             0.0000000000
      8308       382  IM1       H5            -11.4232696088       13.4912942393      -13.5132776828  IM1       112             0.0000000000
      8309       382  IM1       C4             -8.2644127982       13.2057476481      -13.8691571285  IM1       112             0.0000000000
      8310       382  IM1       DC4            -8.2917806631       13.1747795198      -13.8745478969  IM1       112             0.0000000000
      8311       382  IM1       H6             -7.2288200846       13.5458170958      -13.8698660327  IM1       112             0.0000000000
      8312       382  IM1       N2             -9.3337096277       13.9570615041      -13.6046542990  IM1       112             0.0000000000
      8313       382  IM1       DN2            -9.3469311330       13.9519059131      -13.6163051672  IM1       112             0.0000000000
      8314       382  IM1       H7             -9.3374923488       14.9213571695      -13.3398533155  IM1       112             0.0000000000
      8315       382  IM1       LPN21          -9.3293614563       14.2493200292      -13.5370817608  IM1       112             0.0000000000
      8316       383  IM1       C1             27.2400321845      -23.6326515209      -14.4939405056  IM1       113             0.0000000000
      8317       383  IM1       DC1            27.2422089352      -23.6140279946      -14.4904201064  IM1       113             0.0000000000
      8318       383  IM1       H1             27.5426565990      -22.7136433987      -15.0399840342  IM1       113             0.0000000000
      8319       383  IM1       H2             27.6865226693      -23.6334520577      -13.4766074198  IM1       113             0.0000000000
      8320       383  IM1       H3             26.1315814258      -23.6757998037      -14.4323276674  IM1       113             0.0000000000
      8321       383  IM1       N1             27.6962292913      -24.7930355801      -15.1975785303  IM1       113             0.0000000000
      8322       383  IM1       DN1            27.6893682304      -24.7850617820      -15.1823144123  IM1       113             0.0000000000
      8323       383  IM1       C2             28.4928208237      -24.8024823681      -16.3213671183  IM1       113             0.0000000000
      8324       383  IM1       DC2            28.4799729739      -24.7895625935      -16.2905418040  IM1       113             0.0000000000
      8325       383  IM1       H4             28.8410958156      -23.9122851489      -16.8304274692  IM1       113             0.0000000000
      8326       383  IM1       C3             28.6291033672      -26.1126371408      -16.6711719571  IM1       113             0.0000000000
      8327       383  IM1       DC3            28.6301177459      -26.0988421915      -16.6692049082  IM1       113             0.0000000000
      8328       383  IM1       H5             29.1391036249      -26.5575307998      -17.5166649312  IM1       113             0.0000000000
      8329       383  IM1       C4             27.3843448698      -26.0774916037      -14.9000021959  IM1       113             0.0000000000
      8330       383  IM1       DC4            27.3847453608      -26.0575300212      -14.9013813699  IM1       113             0.0000000000
      8331       383  IM1       H6             26.7555394507      -26.3664058784      -14.0578428958  IM1       113             0.0000000000
      8332       383  IM1       N2             27.9376605202      -26.9100106114      -15.7761420833  IM1       113             0.0000000000
      8333       383  IM1       DN2            27.9398758484      -26.8998882886      -15.7772231444  IM1       113             0.0000000000
      8334       383  IM1       H7             27.8565756704      -27.9066331358      -15.7891340445  IM1       113             0.0000000000
      8335       383  IM1       LPN21          27.9122992200      -27.2089161226      -15.7726349685  IM1       113             0.0000000000
      8336       384  IM1       C1            -16.9556943839      -12.2371143281        1.5441198850  IM1       114             0.0000000000
      8337       384  IM1       DC1           -16.9604983851      -12.2372981779        1.5455801654  IM1       114             0.0000000000
      8338       384  IM1       H1            -18.0453562186      -12.2554251091        1.7600430203  IM1       114             0.0000000000
      8339       384  IM1       H2            -16.7275457594      -11.3973187740        0.8534588742  IM1       114             0.0000000000
      8340       384  IM1       H3            -16.3943860633      -12.1231676565        2.4961020935  IM1       114             0.0000000000
      8341       384  IM1       N1            -16.5576044541      -13.4592551047        0.9247134892  IM1       114             0.0000000000
      8342       384  IM1       DN1           -16.5367642552      -13.4474646160        0.9283882606  IM1       114             0.0000000000
      8343       384  IM1       C2            -17.3713922580      -14.5286228859        0.6288464163  IM1       114             0.0000000000
      8344       384  IM1       DC2           -17.3574783318      -14.4894330754        0.6413672574  IM1       114             0.0000000000
      8345       384  IM1       H4            -18.4354909999      -14.5669343073        0.8266218030  IM1       114             0.0000000000
      8346       384  IM1       C3            -16.5614920376      -15.4694890525        0.0640606073  IM1       114             0.0000000000
      8347       384  IM1       DC3           -16.5551058751      -15.4482627713        0.0694137103  IM1       114             0.0000000000
      8348       384  IM1       H5            -16.8041565985      -16.4551705656       -0.3133448329  IM1       114             0.0000000000
      8349       384  IM1       C4            -15.2972619846      -13.7739752850        0.5386618042  IM1       114             0.0000000000
      8350       384  IM1       DC4           -15.2937787100      -13.7646858255        0.5457848375  IM1       114             0.0000000000
      8351       384  IM1       H6            -14.4474097391      -13.1005452494        0.6497615269  IM1       114             0.0000000000
      8352       384  IM1       N2            -15.2573168485      -14.9932331217        0.0119416373  IM1       114             0.0000000000
      8353       384  IM1       DN2           -15.2494836572      -14.9887476565        0.0145610245  IM1       114             0.0000000000
      8354       384  IM1       H7            -14.4546099528      -15.4634369058       -0.3548962574  IM1       114             0.0000000000
      8355       384  IM1       LPN21         -15.0116028035      -15.1290008586       -0.0938493345  IM1       114             0.0000000000
      8356       385  IM1       C1             -1.6694970346       14.6192984330       23.0597482494  IM1       115             0.0000000000
      8357       385  IM1       DC1            -1.6319198777       14.5898309218       23.0818667980  IM1       115             0.0000000000
      8358       385  IM1       H1             -1.0342870633       15.2036191788       23.7593185164  IM1       115             0.0000000000
      8359       385  IM1       H2             -2.6327221774       15.1552489893       22.9209126362  IM1       115             0.0000000000
      8360       385  IM1       H3             -1.1633221317       14.5020628531       22.0777279914  IM1       115             0.0000000000
      8361       385  IM1       N1             -1.9496695977       13.3350729496       23.5973440821  IM1       115             0.0000000000
      8362       385  IM1       DN1            -1.9324976109       13.3078626756       23.6195543800  IM1       115             0.0000000000
      8363       385  IM1       C2             -1.4085320542       12.7773628209       24.7391192477  IM1       115             0.0000000000
      8364       385  IM1       DC2            -1.3849551293       12.7746475821       24.7514723158  IM1       115             0.0000000000
      8365       385  IM1       H4             -0.7155994888       13.2943710872       25.3913737320  IM1       115             0.0000000000
      8366       385  IM1       C3             -1.9761477309       11.5473462347       24.8519084615  IM1       115             0.0000000000
      8367       385  IM1       DC3            -1.9662150510       11.5323466305       24.8566385502  IM1       115             0.0000000000
      8368       385  IM1       H5             -1.8591009787       10.7858275864       25.6130118750  IM1       115             0.0000000000
      8369       385  IM1       C4             -2.8016849638       12.4373044478       23.0523297540  IM1       115             0.0000000000
      8370       385  IM1       DC4            -2.7712280810       12.4315744774       23.0695020327  IM1       115             0.0000000000
      8371       385  IM1       H6             -3.3631603234       12.6227473492       22.1366571319  IM1       115             0.0000000000
      8372       385  IM1       N2             -2.8307824072       11.3298484977       23.7915451153  IM1       115             0.0000000000
      8373       385  IM1       DN2            -2.8185248311       11.3065106888       23.7943263049  IM1       115             0.0000000000
      8374       385  IM1       H7             -3.3812149039       10.5144700044       23.6121517495  IM1       115             0.0000000000
      8375       385  IM1       LPN21          -2.9939828779       11.0852181803       23.7322019257  IM1       115             0.0000000000
      8376       386  IM1       C1            -23.3229826440        2.4801095312       12.6463411805  IM1       116             0.0000000000
      8377       386  IM1       DC1           -23.3258244648        2.4701702476       12.6298864439  IM1       116             0.0000000000
      8378       386  IM1       H1            -22.5261653221        3.0345255628       12.1059468637  IM1       116             0.0000000000
      8379       386  IM1       H2            -22.8569366953        1.7572573983       13.3496241732  IM1       116             0.0000000000
      8380       386  IM1       H3            -23.9542526945        3.2010569088       13.2085279846  IM1       116             0.0000000000
      8381       386  IM1       N1            -24.1352584617        1.7693790460       11.7142235285  IM1       116             0.0000000000
      8382       386  IM1       DN1           -24.1410759813        1.7627962234       11.7065545937  IM1       116             0.0000000000
      8383       386  IM1       C2            -24.0202595173        1.8200295379       10.3421617908  IM1       116             0.0000000000
      8384       386  IM1       DC2           -24.0159684962        1.8143420955       10.3523014881  IM1       116             0.0000000000
      8385       386  IM1       H4            -23.2600103514        2.3922918736        9.8250292884  IM1       116             0.0000000000
      8386       386  IM1       C3            -25.0123043662        1.0262683774        9.8565729461  IM1       116             0.0000000000
      8387       386  IM1       DC3           -25.0141503852        1.0189363156        9.8441398415  IM1       116             0.0000000000
      8388       386  IM1       H5            -25.2635769583        0.7749821449        8.8335351590  IM1       116             0.0000000000
      8389       386  IM1       C4            -25.1786977317        0.9586062823       12.0166475164  IM1       116             0.0000000000
      8390       386  IM1       DC4           -25.1680701725        0.9674476371       12.0128594223  IM1       116             0.0000000000
      8391       386  IM1       H6            -25.4944737002        0.7402276281       13.0367927517  IM1       116             0.0000000000
      8392       386  IM1       N2            -25.7382096990        0.4841012998       10.9036589218  IM1       116             0.0000000000
      8393       386  IM1       DN2           -25.7370977306        0.4848806917       10.8962635025  IM1       116             0.0000000000
      8394       386  IM1       H7            -26.5173120024       -0.1402570686       10.8473008814  IM1       116             0.0000000000
      8395       386  IM1       LPN21         -25.9733204323        0.2981472586       10.8916573539  IM1       116             0.0000000000
      8396       387  IM1       C1            -16.4688608105      -17.8195385493      -13.6560572542  IM1       117             0.0000000000
      8397       387  IM1       DC1           -16.4768782002      -17.8128432414      -13.6503900374  IM1       117             0.0000000000
      8398       387  IM1       H1            -17.4333270909      -17.2732751485      -13.5804127462  IM1       117             0.0000000000
      8399       387  IM1       H2            -15.9102609366      -17.4746549109      -14.5523509878  IM1       117             0.0000000000
      8400       387  IM1       H3            -15.8697429664      -17.6481742305      -12.7362675605  IM1       117             0.0000000000
      8401       387  IM1       N1            -16.7085215387      -19.2215620732      -13.7767385938  IM1       117             0.0000000000
      8402       387  IM1       DN1           -16.7079836311      -19.2190350132      -13.7723087301  IM1       117             0.0000000000
      8403       387  IM1       C2            -17.9392832185      -19.8412815450      -13.7626625395  IM1       117             0.0000000000
      8404       387  IM1       DC2           -17.9390510852      -19.8168714284      -13.7566920781  IM1       117             0.0000000000
      8405       387  IM1       H4            -18.8855217831      -19.3145964365      -13.7738149781  IM1       117             0.0000000000
      8406       387  IM1       C3            -17.6824225573      -21.1753155420      -13.7815062578  IM1       117             0.0000000000
      8407       387  IM1       DC3           -17.6948392433      -21.1643280921      -13.7787151306  IM1       117             0.0000000000
      8408       387  IM1       H5            -18.3605102330      -22.0177150396      -13.8402360670  IM1       117             0.0000000000
      8409       387  IM1       C4            -15.7556457715      -20.1836791708      -13.7970865736  IM1       117             0.0000000000
      8410       387  IM1       DC4           -15.7677187478      -20.1674916477      -13.7932063141  IM1       117             0.0000000000
      8411       387  IM1       H6            -14.6866508406      -19.9801493869      -13.8597401037  IM1       117             0.0000000000
      8412       387  IM1       N2            -16.3143329950      -21.3882239602      -13.7842976875  IM1       117             0.0000000000
      8413       387  IM1       DN2           -16.3235367182      -21.3816605974      -13.7833761097  IM1       117             0.0000000000
      8414       387  IM1       H7            -15.8400365009      -22.2652261193      -13.8611745282  IM1       117             0.0000000000
      8415       387  IM1       LPN21         -16.1655277464      -21.6487112407      -13.7824606583  IM1       117             0.0000000000
      8416       388  IM1       C1             12.3557483645      -16.7773339708       -7.3568374083  IM1       118             0.0000000000
      8417       388  IM1       DC1            12.3265113191      -16.7652331285       -7.3295928631  IM1       118             0.0000000000
      8418       388  IM1       H1             11.2998831474      -16.8966873335       -7.0324542717  IM1       118             0.0000000000
      8419       388  IM1       H2             12.4021495520      -16.0937753492       -8.2314319093  IM1       118             0.0000000000
      8420       388  IM1       H3             12.9702532140      -16.3767583501       -6.5224250631  IM1       118             0.0000000000
      8421       388  IM1       N1             12.8962603418      -18.0397780059       -7.7525006181  IM1       118             0.0000000000
      8422       388  IM1       DN1            12.8825608488      -18.0201446575       -7.7358070133  IM1       118             0.0000000000
      8423       388  IM1       C2             12.2228815621      -19.2436436875       -7.8002060449  IM1       118             0.0000000000
      8424       388  IM1       DC2            12.2000843751      -19.2048978893       -7.7718240716  IM1       118             0.0000000000
      8425       388  IM1       H4             11.1690614054      -19.3848874538       -7.5942879161  IM1       118             0.0000000000
      8426       388  IM1       C3             13.1476386835      -20.1716706677       -8.1739562692  IM1       118             0.0000000000
      8427       388  IM1       DC3            13.1209255576      -20.1527838893       -8.1654135336  IM1       118             0.0000000000
      8428       388  IM1       H5             13.0515483520      -21.2414846939       -8.3123527919  IM1       118             0.0000000000
      8429       388  IM1       C4             14.1861184447      -18.2694681072       -8.0994049496  IM1       118             0.0000000000
      8430       388  IM1       DC4            14.1494043167      -18.2637992429       -8.0825321633  IM1       118             0.0000000000
      8431       388  IM1       H6             14.9453536963      -17.4911306195       -8.1759071589  IM1       118             0.0000000000
      8432       388  IM1       N2             14.3743352260      -19.5613964944       -8.3494522896  IM1       118             0.0000000000
      8433       388  IM1       DN2            14.3502613740      -19.5609277347       -8.3416487371  IM1       118             0.0000000000
      8434       388  IM1       H7             15.2305970934      -19.9913830081       -8.6356815902  IM1       118             0.0000000000
      8435       388  IM1       LPN21          14.6352230759      -19.6870247952       -8.4279064789  IM1       118             0.0000000000
      8436       389  IM1       C1             25.4171390588       13.7116448326      -22.0221382948  IM1       119             0.0000000000
      8437       389  IM1       DC1            25.4289509893       13.6889411541      -22.0021670365  IM1       119             0.0000000000
      8438       389  IM1       H1             25.6710326186       14.4382813086      -21.2209775793  IM1       119             0.0000000000
      8439       389  IM1       H2             25.0888450780       12.7427171737      -21.5888678769  IM1       119             0.0000000000
      8440       389  IM1       H3             24.6227598266       14.1383446605      -22.6711451459  IM1       119             0.0000000000
      8441       389  IM1       N1             26.5534890202       13.4255568779      -22.8117061197  IM1       119             0.0000000000
      8442       389  IM1       DN1            26.5554059476       13.4036910171      -22.8170221601  IM1       119             0.0000000000
      8443       389  IM1       C2             27.7824002291       14.0342191714      -22.7489447247  IM1       119             0.0000000000
      8444       389  IM1       DC2            27.7641094910       14.0179962262      -22.7349594674  IM1       119             0.0000000000
      8445       389  IM1       H4             28.0173260776       14.8432152026      -22.0683389157  IM1       119             0.0000000000
      8446       389  IM1       C3             28.5365452926       13.4304716383      -23.7095825318  IM1       119             0.0000000000
      8447       389  IM1       DC3            28.5263094095       13.4226251884      -23.7009563186  IM1       119             0.0000000000
      8448       389  IM1       H5             29.5549341287       13.6170040655      -24.0273542002  IM1       119             0.0000000000
      8449       389  IM1       C4             26.6039985727       12.4731050510      -23.7695133544  IM1       119             0.0000000000
      8450       389  IM1       DC4            26.5944898618       12.4658188830      -23.7625699004  IM1       119             0.0000000000
      8451       389  IM1       H6             25.7473846424       11.8622355012      -24.0543834430  IM1       119             0.0000000000
      8452       389  IM1       N2             27.8000467029       12.4419270921      -24.3378264046  IM1       119             0.0000000000
      8453       389  IM1       DN2            27.7955306098       12.4376922981      -24.3330472909  IM1       119             0.0000000000
      8454       389  IM1       H7             28.0904442456       11.8630904732      -25.0998089738  IM1       119             0.0000000000
      8455       389  IM1       LPN21          27.8841699991       12.2551333452      -24.5569870013  IM1       119             0.0000000000
      8456       390  IM1       C1             19.7359111625       23.9207706730        6.1931854106  IM1       120             0.0000000000
      8457       390  IM1       DC1            19.8045928224       23.9644461043        6.1766660707  IM1       120             0.0000000000
      8458       390  IM1       H1             20.6569871808       23.4460422611        5.7924699212  IM1       120             0.0000000000
      8459       390  IM1       H2             18.9226346553       23.1702213844        6.0953176966  IM1       120             0.0000000000
      8460       390  IM1       H3             19.8376627770       24.2001110592        7.2636696739  IM1       120             0.0000000000
      8461       390  IM1       N1             19.3953495269       25.0673153985        5.4081667936  IM1       120             0.0000000000
      8462       390  IM1       DN1            19.4174586363       25.1059543639        5.3996843458  IM1       120             0.0000000000
      8463       390  IM1       C2             20.0336329580       25.4769521179        4.2529539743  IM1       120             0.0000000000
      8464       390  IM1       DC2            20.0657551153       25.4997035985        4.2592995639  IM1       120             0.0000000000
      8465       390  IM1       H4             20.8277648962       24.9101404051        3.7828816959  IM1       120             0.0000000000
      8466       390  IM1       C3             19.3101179750       26.5303444540        3.7848741170  IM1       120             0.0000000000
      8467       390  IM1       DC3            19.3198139710       26.5558029887        3.7811989906  IM1       120             0.0000000000
      8468       390  IM1       H5             19.4048568944       27.0779787159        2.8553525991  IM1       120             0.0000000000
      8469       390  IM1       C4             18.3340879759       25.8856867624        5.6129788760  IM1       120             0.0000000000
      8470       390  IM1       DC4            18.3650289815       25.9074743480        5.6026443284  IM1       120             0.0000000000
      8471       390  IM1       H6             17.6218338779       25.7320933447        6.4236595542  IM1       120             0.0000000000
      8472       390  IM1       N2             18.2760870097       26.8209706696        4.6600530184  IM1       120             0.0000000000
      8473       390  IM1       DN2            18.2856361174       26.8423413153        4.6565976750  IM1       120             0.0000000000
      8474       390  IM1       H7             17.5543755016       27.5021621808        4.5371277398  IM1       120             0.0000000000
      8475       390  IM1       LPN21          18.0767408276       27.0447137667        4.6459064222  IM1       120             0.0000000000
      8476       391  IM1       C1             22.2109214436      -22.4794044955        8.0134219092  IM1       121             0.0000000000
      8477       391  IM1       DC1            22.2179680262      -22.5055129776        8.0268089498  IM1       121             0.0000000000
      8478       391  IM1       H1             22.8734017400      -23.0869787582        8.6663341331  IM1       121             0.0000000000
      8479       391  IM1       H2             21.7620499883      -23.1171306001        7.2221312964  IM1       121             0.0000000000
      8480       391  IM1       H3             21.4104230994      -22.0073184272        8.6222389143  IM1       121             0.0000000000
      8481       391  IM1       N1             22.9683222194      -21.4462418308        7.3836138615  IM1       121             0.0000000000
      8482       391  IM1       DN1            22.9382527571      -21.4534889835        7.3837460591  IM1       121             0.0000000000
      8483       391  IM1       C2             24.3257247611      -21.2462091372        7.4772448198  IM1       121             0.0000000000
      8484       391  IM1       DC2            24.2751199276      -21.2645300356        7.4854099736  IM1       121             0.0000000000
      8485       391  IM1       H4             25.0032608789      -21.8011322238        8.1143430674  IM1       121             0.0000000000
      8486       391  IM1       C3             24.6135117140      -20.2138432288        6.6410571514  IM1       121             0.0000000000
      8487       391  IM1       DC3            24.5945775568      -20.2300623462        6.6423639947  IM1       121             0.0000000000
      8488       391  IM1       H5             25.5620533885      -19.7361469497        6.4290100893  IM1       121             0.0000000000
      8489       391  IM1       C4             22.4744858523      -20.5355783192        6.5138106717  IM1       121             0.0000000000
      8490       391  IM1       DC4            22.4749234098      -20.5435436931        6.5197116967  IM1       121             0.0000000000
      8491       391  IM1       H6             21.4196916408      -20.4618574335        6.2490949708  IM1       121             0.0000000000
      8492       391  IM1       N2             23.4468705000      -19.7658395657        6.0402076211  IM1       121             0.0000000000
      8493       391  IM1       DN2            23.4390805749      -19.7634643282        6.0370330827  IM1       121             0.0000000000
      8494       391  IM1       H7             23.3536192481      -19.0156802166        5.3855587420  IM1       121             0.0000000000
      8495       391  IM1       LPN21          23.4111880000      -19.5424876558        5.8431272224  IM1       121             0.0000000000
      8496       392  IM1       C1             -3.2066386175        4.7324535121       22.1250236846  IM1       122             0.0000000000
      8497       392  IM1       DC1            -3.1635522677        4.7438611242       22.1532726955  IM1       122             0.0000000000
      8498       392  IM1       H1             -2.3829713513        5.4727905976       22.0367387139  IM1       122             0.0000000000
      8499       392  IM1       H2             -2.8436678646        3.7208182557       21.8436567704  IM1       122             0.0000000000
      8500       392  IM1       H3             -3.6046256885        4.7285460043       23.1622854754  IM1       122             0.0000000000
      8501       392  IM1       N1             -4.2703441064        5.0844017268       21.2391561695  IM1       122             0.0000000000
      8502       392  IM1       DN1            -4.2356421802        5.0802786588       21.2677434669  IM1       122             0.0000000000
      8503       392  IM1       C2             -4.2660353315        6.1467332109       20.3636745512  IM1       122             0.0000000000
      8504       392  IM1       DC2            -4.2202252566        6.1417361669       20.4056020696  IM1       122             0.0000000000
      8505       392  IM1       H4             -3.4149512138        6.7902473427       20.1781095039  IM1       122             0.0000000000
      8506       392  IM1       C3             -5.5034040840        6.1742324146       19.7984871373  IM1       122             0.0000000000
      8507       392  IM1       DC3            -5.4565474477        6.1946099356       19.8201793875  IM1       122             0.0000000000
      8508       392  IM1       H5             -5.9231228309        6.8367008272       19.0515863569  IM1       122             0.0000000000
      8509       392  IM1       C4             -5.4911590220        4.5018463194       21.1746120308  IM1       122             0.0000000000
      8510       392  IM1       DC4            -5.4472477543        4.5262942252       21.1932019073  IM1       122             0.0000000000
      8511       392  IM1       H6             -5.7659309387        3.5926048739       21.7092898662  IM1       122             0.0000000000
      8512       392  IM1       N2             -6.2733433430        5.1628100432       20.3295226632  IM1       122             0.0000000000
      8513       392  IM1       DN2            -6.2396874590        5.1897581408       20.3423893745  IM1       122             0.0000000000
      8514       392  IM1       H7             -7.2043266014        4.9103838900       20.0657970299  IM1       122             0.0000000000
      8515       392  IM1       LPN21          -6.5604358334        5.0979460332       20.2714661206  IM1       122             0.0000000000
      8516       393  IM1       C1             -6.4098619654       23.8487692726       -5.9751760547  IM1       123             0.0000000000
      8517       393  IM1       DC1            -6.3966745782       23.8676533557       -6.0288065294  IM1       123             0.0000000000
      8518       393  IM1       H1             -6.1316735114       24.2219803095       -6.9839603272  IM1       123             0.0000000000
      8519       393  IM1       H2             -6.7030222044       22.7788409648       -6.0354379096  IM1       123             0.0000000000
      8520       393  IM1       H3             -5.5568312412       23.9692017565       -5.2736380299  IM1       123             0.0000000000
      8521       393  IM1       N1             -7.5181496584       24.5994284180       -5.4649701261  IM1       123             0.0000000000
      8522       393  IM1       DN1            -7.5158613175       24.6099877712       -5.4908574334  IM1       123             0.0000000000
      8523       393  IM1       C2             -7.9596897655       25.7679018929       -6.0111608792  IM1       123             0.0000000000
      8524       393  IM1       DC2            -7.9434477276       25.7710246498       -6.0184576675  IM1       123             0.0000000000
      8525       393  IM1       H4             -7.5465355574       26.2018549371       -6.9133123942  IM1       123             0.0000000000
      8526       393  IM1       C3             -9.0256080457       26.1635058761       -5.2731202057  IM1       123             0.0000000000
      8527       393  IM1       DC3            -9.0075704820       26.1899730826       -5.2721998436  IM1       123             0.0000000000
      8528       393  IM1       H5             -9.7128223156       26.9852586513       -5.4323305182  IM1       123             0.0000000000
      8529       393  IM1       C4             -8.2993869441       24.3463832942       -4.3915083792  IM1       123             0.0000000000
      8530       393  IM1       DC4            -8.2921797041       24.3797064490       -4.4274975146  IM1       123             0.0000000000
      8531       393  IM1       H6             -8.1811827265       23.4637348266       -3.7629708343  IM1       123             0.0000000000
      8532       393  IM1       N2             -9.1927534486       25.3204840493       -4.2105147057  IM1       123             0.0000000000
      8533       393  IM1       DN2            -9.1809296774       25.3568222296       -4.2082606857  IM1       123             0.0000000000
      8534       393  IM1       H7             -9.9230042072       25.3409508788       -3.5276421420  IM1       123             0.0000000000
      8535       393  IM1       LPN21          -9.3867740344       25.3444227723       -3.9829560324  IM1       123             0.0000000000
      8536       394  IM1       C1            -27.9879063170      -10.3419800664        3.6125731156  IM1       124             0.0000000000
      8537       394  IM1       DC1           -27.9856155854      -10.3412634586        3.6371291633  IM1       124             0.0000000000
      8538       394  IM1       H1            -28.9304436639       -9.9009073064        4.0016735801  IM1       124             0.0000000000
      8539       394  IM1       H2            -27.8158688599       -9.9706426657        2.5796972040  IM1       124             0.0000000000
      8540       394  IM1       H3            -27.1338237246      -10.0655683456        4.2671420470  IM1       124             0.0000000000
      8541       394  IM1       N1            -28.0934419625      -11.7686765875        3.5685579639  IM1       124             0.0000000000
      8542       394  IM1       DN1           -28.0883133324      -11.7699401717        3.5691994215  IM1       124             0.0000000000
      8543       394  IM1       C2            -29.1213776248      -12.5294185085        4.0834962765  IM1       124             0.0000000000
      8544       394  IM1       DC2           -29.1206794245      -12.5033368446        4.0874222643  IM1       124             0.0000000000
      8545       394  IM1       H4            -30.0062017478      -12.1186463694        4.5538594566  IM1       124             0.0000000000
      8546       394  IM1       C3            -28.7770179655      -13.8269872178        3.8501867694  IM1       124             0.0000000000
      8547       394  IM1       DC3           -28.7868224704      -13.8158287221        3.8471911218  IM1       124             0.0000000000
      8548       394  IM1       H5            -29.2992288376      -14.7432201500        4.0965645689  IM1       124             0.0000000000
      8549       394  IM1       C4            -27.1718153524      -12.6141462233        3.0459564261  IM1       124             0.0000000000
      8550       394  IM1       DC4           -27.1787849856      -12.6038326412        3.0516850421  IM1       124             0.0000000000
      8551       394  IM1       H6            -26.2290554461      -12.2846479524        2.6092246452  IM1       124             0.0000000000
      8552       394  IM1       N2            -27.5610467650      -13.8787673843        3.1908462886  IM1       124             0.0000000000
      8553       394  IM1       DN2           -27.5658919419      -13.8769054516        3.1929301232  IM1       124             0.0000000000
      8554       394  IM1       H7            -27.0486301872      -14.6961843738        2.9276757809  IM1       124             0.0000000000
      8555       394  IM1       LPN21         -27.4095357643      -14.1199241932        3.0965711052  IM1       124             0.0000000000
      8556       395  IM1       C1            -28.7452678721       -6.7865220291       17.0126474577  IM1       125             0.0000000000
      8557       395  IM1       DC1           -28.7163685871       -6.7869508744       17.0493609185  IM1       125             0.0000000000
      8558       395  IM1       H1            -28.8271233122       -7.8676598004       16.7702391114  IM1       125             0.0000000000
      8559       395  IM1       H2            -28.2913988324       -6.2448616579       16.1553680753  IM1       125             0.0000000000
      8560       395  IM1       H3            -29.7556699293       -6.3636958950       17.1987300854  IM1       125             0.0000000000
      8561       395  IM1       N1            -27.9586111885       -6.5925607344       18.1681121599  IM1       125             0.0000000000
      8562       395  IM1       DN1           -27.9459002423       -6.5971204637       18.2044463512  IM1       125             0.0000000000
      8563       395  IM1       C2            -27.3673233626       -7.5890975542       18.9056655423  IM1       125             0.0000000000
      8564       395  IM1       DC2           -27.3548590189       -7.6050069537       18.9079368219  IM1       125             0.0000000000
      8565       395  IM1       H4            -27.5011839845       -8.6426253730       18.6934169403  IM1       125             0.0000000000
      8566       395  IM1       C3            -26.6552148641       -6.9576255945       19.8708195923  IM1       125             0.0000000000
      8567       395  IM1       DC3           -26.6397070055       -6.9440850336       19.8871942541  IM1       125             0.0000000000
      8568       395  IM1       H5            -26.0152565668       -7.3711811283       20.6404391075  IM1       125             0.0000000000
      8569       395  IM1       C4            -27.6045360082       -5.4004734178       18.7039058401  IM1       125             0.0000000000
      8570       395  IM1       DC4           -27.6076833627       -5.4071030463       18.7074858477  IM1       125             0.0000000000
      8571       395  IM1       H6            -27.9203336656       -4.4425685647       18.2906382124  IM1       125             0.0000000000
      8572       395  IM1       N2            -26.8036246878       -5.5852439993       19.7519625670  IM1       125             0.0000000000
      8573       395  IM1       DN2           -26.7916797347       -5.5832491943       19.7706119092  IM1       125             0.0000000000
      8574       395  IM1       H7            -26.3595409549       -4.8705956627       20.2923951651  IM1       125             0.0000000000
      8575       395  IM1       LPN21         -26.6845095402       -5.3683642928       19.9215938569  IM1       125             0.0000000000
      8576       396  IM1       C1            -11.6266551210        1.7664115419       24.4163631293  IM1       126             0.0000000000
      8577       396  IM1       DC1           -11.6294214520        1.7765329841       24.4449561687  IM1       126             0.0000000000
      8578       396  IM1       H1            -10.5170064548        1.8176226992       24.3969143377  IM1       126             0.0000000000
      8579       396  IM1       H2            -12.0149052575        2.3130326947       25.3022458229  IM1       126             0.0000000000
      8580       396  IM1       H3            -12.0207342511        2.2154970687       23.4796962567  IM1       126             0.0000000000
      8581       396  IM1       N1            -12.0492476216        0.3967394706       24.4827668499  IM1       126             0.0000000000
      8582       396  IM1       DN1           -12.0723281651        0.4132073968       24.5016876034  IM1       126             0.0000000000
      8583       396  IM1       C2            -11.2612672482       -0.7269840758       24.4562500958  IM1       126             0.0000000000
      8584       396  IM1       DC2           -11.2589970530       -0.6810631750       24.4779130214  IM1       126             0.0000000000
      8585       396  IM1       H4            -10.1844180510       -0.7025171454       24.3436171707  IM1       126             0.0000000000
      8586       396  IM1       C3            -12.1184486479       -1.7925726346       24.4591007683  IM1       126             0.0000000000
      8587       396  IM1       DC3           -12.1079997836       -1.7572670371       24.4644133189  IM1       126             0.0000000000
      8588       396  IM1       H5            -11.9243470812       -2.8527428497       24.3530220396  IM1       126             0.0000000000
      8589       396  IM1       C4            -13.3296333496       -0.0164897273       24.5304770301  IM1       126             0.0000000000
      8590       396  IM1       DC4           -13.3377161995        0.0168168898       24.5718136905  IM1       126             0.0000000000
      8591       396  IM1       H6            -14.1804975547        0.6636560031       24.4913376660  IM1       126             0.0000000000
      8592       396  IM1       N2            -13.4198996883       -1.3325953537       24.5488405301  IM1       126             0.0000000000
      8593       396  IM1       DN2           -13.4109062263       -1.3107059180       24.5649883087  IM1       126             0.0000000000
      8594       396  IM1       H7            -14.2612252005       -1.8703250641       24.4939029178  IM1       126             0.0000000000
      8595       396  IM1       LPN21         -13.6748927644       -1.4893953540       24.5686468689  IM1       126             0.0000000000
      8596       397  IM1       C1              3.5464521998        4.9784581574       17.3233455781  IM1       127             0.0000000000
      8597       397  IM1       DC1             3.5641869434        4.9853820565       17.3309832825  IM1       127             0.0000000000
      8598       397  IM1       H1              4.5797758109        5.3330148168       17.1212245951  IM1       127             0.0000000000
      8599       397  IM1       H2              3.5521193749        3.8850618225       17.5202550479  IM1       127             0.0000000000
      8600       397  IM1       H3              3.1299072181        5.5208689094       18.1989036026  IM1       127             0.0000000000
      8601       397  IM1       N1              2.7146102739        5.2326703995       16.1890888338  IM1       127             0.0000000000
      8602       397  IM1       DN1             2.7189527588        5.2308210841       16.2079221726  IM1       127             0.0000000000
      8603       397  IM1       C2              3.0843640708        5.9230332772       15.0545389207  IM1       127             0.0000000000
      8604       397  IM1       DC2             3.0928187199        5.9155810013       15.0908914361  IM1       127             0.0000000000
      8605       397  IM1       H4              4.0940740063        6.2485308602       14.8367634161  IM1       127             0.0000000000
      8606       397  IM1       C3              1.9444106622        6.0769203010       14.3231306765  IM1       127             0.0000000000
      8607       397  IM1       DC3             1.9613036240        6.0797643245       14.3333822545  IM1       127             0.0000000000
      8608       397  IM1       H5              1.7857347321        6.5660822177       13.3700139106  IM1       127             0.0000000000
      8609       397  IM1       C4              1.3800576667        4.9990243265       16.1184658376  IM1       127             0.0000000000
      8610       397  IM1       DC4             1.4050179600        5.0084341764       16.1267018566  IM1       127             0.0000000000
      8611       397  IM1       H6              0.8104091791        4.4850194864       16.8926748694  IM1       127             0.0000000000
      8612       397  IM1       N2              0.8787017783        5.5053296264       14.9956729277  IM1       127             0.0000000000
      8613       397  IM1       DN2             0.8953401251        5.5112482643       15.0000793589  IM1       127             0.0000000000
      8614       397  IM1       H7             -0.0780244415        5.4799941769       14.7057883714  IM1       127             0.0000000000
      8615       397  IM1       LPN21           0.5905866012        5.4933009950       14.9129386739  IM1       127             0.0000000000
      8616       398  IM1       C1            -22.6244732931        8.9228146826        7.0396176273  IM1       128             0.0000000000
      8617       398  IM1       DC1           -22.6260306769        8.8952240779        7.0487810205  IM1       128             0.0000000000
      8618       398  IM1       H1            -22.0598369847        8.1139106759        7.5506764784  IM1       128             0.0000000000
      8619       398  IM1       H2            -23.6909804038        8.9012654152        7.3501320601  IM1       128             0.0000000000
      8620       398  IM1       H3            -22.1782818048        9.9078330561        7.2945155671  IM1       128             0.0000000000
      8621       398  IM1       N1            -22.5630397158        8.7460113044        5.6212847317  IM1       128             0.0000000000
      8622       398  IM1       DN1           -22.5659818500        8.7399451030        5.6252602258  IM1       128             0.0000000000
      8623       398  IM1       C2            -21.9794754611        7.6851979315        4.9636149095  IM1       128             0.0000000000
      8624       398  IM1       DC2           -21.9906889057        7.6868888038        4.9830629608  IM1       128             0.0000000000
      8625       398  IM1       H4            -21.4092619578        6.9028256577        5.4490417179  IM1       128             0.0000000000
      8626       398  IM1       C3            -22.1853747068        7.9106757069        3.6363896869  IM1       128             0.0000000000
      8627       398  IM1       DC3           -22.1923579766        7.8979531169        3.6393747703  IM1       128             0.0000000000
      8628       398  IM1       H5            -21.8280398283        7.3593884665        2.7754116597  IM1       128             0.0000000000
      8629       398  IM1       C4            -23.1149728886        9.5624657023        4.6885758827  IM1       128             0.0000000000
      8630       398  IM1       DC4           -23.1080589369        9.5380204437        4.6981172031  IM1       128             0.0000000000
      8631       398  IM1       H6            -23.6324358278       10.4902714129        4.9325198718  IM1       128             0.0000000000
      8632       398  IM1       N2            -22.9181565375        9.0722528432        3.4643940004  IM1       128             0.0000000000
      8633       398  IM1       DN2           -22.9237785698        9.0592634033        3.4635837383  IM1       128             0.0000000000
      8634       398  IM1       H7            -23.1813128038        9.5001874751        2.5997433598  IM1       128             0.0000000000
      8635       398  IM1       LPN21         -23.0162627457        9.1951549922        3.2089136025  IM1       128             0.0000000000
      8636       399  IM1       C1            -19.6624114518      -25.9448954461       18.0347090108  IM1       129             0.0000000000
      8637       399  IM1       DC1           -19.6727290724      -25.9389474369       18.0333318447  IM1       129             0.0000000000
      8638       399  IM1       H1            -18.8846351692      -26.7040160128       17.8042290321  IM1       129             0.0000000000
      8639       399  IM1       H2            -20.5693261882      -26.1396351348       17.4232328323  IM1       129             0.0000000000
      8640       399  IM1       H3            -19.8996321067      -25.9856262423       19.1193233955  IM1       129             0.0000000000
      8641       399  IM1       N1            -19.1748774070      -24.6426001446       17.7166994176  IM1       129             0.0000000000
      8642       399  IM1       DN1           -19.2018640708      -24.6265396721       17.7282379132  IM1       129             0.0000000000
      8643       399  IM1       C2            -17.9364211427      -24.3478508207       17.2027088743  IM1       129             0.0000000000
      8644       399  IM1       DC2           -17.9755044737      -24.3472320629       17.2211811207  IM1       129             0.0000000000
      8645       399  IM1       H4            -17.1839360731      -25.0871678413       16.9576261056  IM1       129             0.0000000000
      8646       399  IM1       C3            -17.9028890610      -22.9962688618       17.0717433677  IM1       129             0.0000000000
      8647       399  IM1       DC3           -17.9267070281      -22.9868460645       17.0794878063  IM1       129             0.0000000000
      8648       399  IM1       H5            -17.1080143770      -22.3615318155       16.7000282631  IM1       129             0.0000000000
      8649       399  IM1       C4            -19.8481311443      -23.4776808931       17.8816756129  IM1       129             0.0000000000
      8650       399  IM1       DC4           -19.8669822094      -23.4731001628       17.8963262919  IM1       129             0.0000000000
      8651       399  IM1       H6            -20.8668932011      -23.4195406850       18.2648773718  IM1       129             0.0000000000
      8652       399  IM1       N2            -19.1035003635      -22.4454170082       17.5048370976  IM1       129             0.0000000000
      8653       399  IM1       DN2           -19.1163159808      -22.4337803167       17.5161832345  IM1       129             0.0000000000
      8654       399  IM1       H7            -19.3570779990      -21.4782261785       17.5203381741  IM1       129             0.0000000000
      8655       399  IM1       LPN21         -19.1865311021      -22.1573186213       17.5150945771  IM1       129             0.0000000000
      8656       400  IM1       C1             16.4614159078       -3.5257719049       13.5201692362  IM1       130             0.0000000000
      8657       400  IM1       DC1            16.4520436816       -3.5395357811       13.5129489424  IM1       130             0.0000000000
      8658       400  IM1       H1             17.1154574268       -3.3827610112       12.6335472325  IM1       130             0.0000000000
      8659       400  IM1       H2             15.9453182428       -2.5683617811       13.7467306087  IM1       130             0.0000000000
      8660       400  IM1       H3             15.7280376689       -4.3320226646       13.3046766118  IM1       130             0.0000000000
      8661       400  IM1       N1             17.2591486144       -3.9057933118       14.6528059842  IM1       130             0.0000000000
      8662       400  IM1       DN1            17.2731058034       -3.9046545821       14.6419800842  IM1       130             0.0000000000
      8663       400  IM1       C2             18.6330330197       -3.9912491266       14.6714834218  IM1       130             0.0000000000
      8664       400  IM1       DC2            18.6351546910       -4.0278082051       14.6347209900  IM1       130             0.0000000000
      8665       400  IM1       H4             19.2674489324       -3.6547514194       13.8608202718  IM1       130             0.0000000000
      8666       400  IM1       C3             18.9669075616       -4.4170193983       15.9222089005  IM1       130             0.0000000000
      8667       400  IM1       DC3            18.9653793288       -4.4237675883       15.9080053579  IM1       130             0.0000000000
      8668       400  IM1       H5             19.9398974241       -4.5735712138       16.3712871305  IM1       130             0.0000000000
      8669       400  IM1       C4             16.8106524734       -4.2734009097       15.8796251413  IM1       130             0.0000000000
      8670       400  IM1       DC4            16.8219009937       -4.2608685815       15.8525467321  IM1       130             0.0000000000
      8671       400  IM1       H6             15.7579315604       -4.2707213665       16.1622406033  IM1       130             0.0000000000
      8672       400  IM1       N2             17.8256749280       -4.6015324946       16.6762028769  IM1       130             0.0000000000
      8673       400  IM1       DN2            17.8404245837       -4.5975559015       16.6742393308  IM1       130             0.0000000000
      8674       400  IM1       H7             17.7563822001       -4.8907771350       17.6309468510  IM1       130             0.0000000000
      8675       400  IM1       LPN21          17.8025072292       -4.6954200178       16.9601894800  IM1       130             0.0000000000
      8676       401  IM1       C1              3.5336859522      -23.3863251559      -21.2003031149  IM1       131             0.0000000000
      8677       401  IM1       DC1             3.5330270340      -23.3782377988      -21.1851618986  IM1       131             0.0000000000
      8678       401  IM1       H1              3.0384992089      -22.4812813151      -21.6126218459  IM1       131             0.0000000000
      8679       401  IM1       H2              4.2795945138      -23.7765535807      -21.9253294553  IM1       131             0.0000000000
      8680       401  IM1       H3              4.0365974169      -23.1475418763      -20.2388544135  IM1       131             0.0000000000
      8681       401  IM1       N1              2.5730834044      -24.4150667176      -20.9885397027  IM1       131             0.0000000000
      8682       401  IM1       DN1             2.5931454428      -24.4255977666      -20.9788976435  IM1       131             0.0000000000
      8683       401  IM1       C2              1.2068756349      -24.2697769098      -20.9308571666  IM1       131             0.0000000000
      8684       401  IM1       DC2             1.2475615936      -24.2680186285      -20.9175770279  IM1       131             0.0000000000
      8685       401  IM1       H4              0.6771648920      -23.3603957978      -21.1864379211  IM1       131             0.0000000000
      8686       401  IM1       C3              0.7161705460      -25.4964849271      -20.5941210274  IM1       131             0.0000000000
      8687       401  IM1       DC3             0.7334505008      -25.4971020016      -20.5817832823  IM1       131             0.0000000000
      8688       401  IM1       H5             -0.3089525824      -25.8272783730      -20.4819280340  IM1       131             0.0000000000
      8689       401  IM1       C4              2.8698499448      -25.6983229715      -20.6762288941  IM1       131             0.0000000000
      8690       401  IM1       DC4             2.8795930409      -25.6906891280      -20.6645589537  IM1       131             0.0000000000
      8691       401  IM1       H6              3.8878653255      -26.0868136656      -20.6475990971  IM1       131             0.0000000000
      8692       401  IM1       N2              1.7655658440      -26.3855856614      -20.4079544180  IM1       131             0.0000000000
      8693       401  IM1       DN2             1.7738828484      -26.3876217971      -20.3972821652  IM1       131             0.0000000000
      8694       401  IM1       H7              1.7083400446      -27.3543552793      -20.1666856132  IM1       131             0.0000000000
      8695       401  IM1       LPN21           1.7555864805      -26.6736877059      -20.3249024809  IM1       131             0.0000000000
      8696       402  IM1       C1              3.1334617225      -25.5793427740       10.3813064846  IM1       132             0.0000000000
      8697       402  IM1       DC1             3.1457010275      -25.5368046326       10.3624596140  IM1       132             0.0000000000
      8698       402  IM1       H1              2.1311934814      -25.9174055359       10.0414639576  IM1       132             0.0000000000
      8699       402  IM1       H2              3.1940149005      -25.6932634191       11.4847902404  IM1       132             0.0000000000
      8700       402  IM1       H3              3.9106946646      -26.1964485910        9.8818964699  IM1       132             0.0000000000
      8701       402  IM1       N1              3.3385403500      -24.2064214701       10.0297462320  IM1       132             0.0000000000
      8702       402  IM1       DN1             3.3607296186      -24.1475363728       10.0359547489  IM1       132             0.0000000000
      8703       402  IM1       C2              2.4132140133      -23.3521104272        9.4678573143  IM1       132             0.0000000000
      8704       402  IM1       DC2             2.4359507813      -23.3133418797        9.4740437510  IM1       132             0.0000000000
      8705       402  IM1       H4              1.4452903613      -23.6889817447        9.1178137181  IM1       132             0.0000000000
      8706       402  IM1       C3              3.0044586920      -22.1309052052        9.4230606727  IM1       132             0.0000000000
      8707       402  IM1       DC3             3.0453493207      -22.0837723206        9.4230931090  IM1       132             0.0000000000
      8708       402  IM1       H5              2.6312107037      -21.1991947975        9.0162552459  IM1       132             0.0000000000
      8709       402  IM1       C4              4.4494488573      -23.4845897860       10.3018147886  IM1       132             0.0000000000
      8710       402  IM1       DC4             4.4832118990      -23.4553670549       10.3136353885  IM1       132             0.0000000000
      8711       402  IM1       H6              5.3380294792      -23.9251389155       10.7539662489  IM1       132             0.0000000000
      8712       402  IM1       N2              4.2875192664      -22.2058502994        9.9481292036  IM1       132             0.0000000000
      8713       402  IM1       DN2             4.3309040788      -22.1767226352        9.9593101656  IM1       132             0.0000000000
      8714       402  IM1       H7              4.9589062828      -21.4688522329       10.0260607397  IM1       132             0.0000000000
      8715       402  IM1       LPN21           4.4909125590      -21.9875306502        9.9792370697  IM1       132             0.0000000000
      8716       403  IM1       C1            -13.1721529850      -13.7577902548      -14.6457808414  IM1       133             0.0000000000
      8717       403  IM1       DC1           -13.1452557689      -13.7600612167      -14.6331015879  IM1       133             0.0000000000
      8718       403  IM1       H1            -12.8882274558      -13.0340982149      -13.8520698579  IM1       133             0.0000000000
      8719       403  IM1       H2            -12.3251511926      -13.8958541891      -15.3513638033  IM1       133             0.0000000000
      8720       403  IM1       H3            -13.4588178359      -14.7269893100      -14.1844810983  IM1       133             0.0000000000
      8721       403  IM1       N1            -14.2904460266      -13.2561098433      -15.3796851590  IM1       133             0.0000000000
      8722       403  IM1       DN1           -14.2673795308      -13.2804919173      -15.3755115744  IM1       133             0.0000000000
      8723       403  IM1       C2            -14.9074750650      -12.0414872823      -15.1847281120  IM1       133             0.0000000000
      8724       403  IM1       DC2           -14.8762271446      -12.0830264741      -15.1797872529  IM1       133             0.0000000000
      8725       403  IM1       H4            -14.6098979054      -11.3039775603      -14.4495980250  IM1       133             0.0000000000
      8726       403  IM1       C3            -15.9223331485      -11.9872522486      -16.0926819355  IM1       133             0.0000000000
      8727       403  IM1       DC3           -15.9136040144      -11.9980624587      -16.0787500232  IM1       133             0.0000000000
      8728       403  IM1       H5            -16.6464034134      -11.2037570519      -16.2790861428  IM1       133             0.0000000000
      8729       403  IM1       C4            -14.9380447998      -13.8960561269      -16.3851375337  IM1       133             0.0000000000
      8730       403  IM1       DC4           -14.9242052432      -13.8935679433      -16.3686954794  IM1       133             0.0000000000
      8731       403  IM1       H6            -14.6535048357      -14.8774415625      -16.7646367243  IM1       133             0.0000000000
      8732       403  IM1       N2            -15.9457074268      -13.1564499858      -16.8366975338  IM1       133             0.0000000000
      8733       403  IM1       DN2           -15.9416571396      -13.1591061293      -16.8267565279  IM1       133             0.0000000000
      8734       403  IM1       H7            -16.5732257998      -13.3897868429      -17.5795128559  IM1       133             0.0000000000
      8735       403  IM1       LPN21         -16.1347302820      -13.2352642751      -17.0559204068  IM1       133             0.0000000000
      8736       404  IM1       C1             -1.7441814873      -26.0067132956      -14.0207412795  IM1       134             0.0000000000
      8737       404  IM1       DC1            -1.7422181730      -26.0115183107      -14.0113301960  IM1       134             0.0000000000
      8738       404  IM1       H1             -1.9882370729      -27.0857247153      -14.1231728613  IM1       134             0.0000000000
      8739       404  IM1       H2             -1.2093637142      -25.8366327829      -13.0619067947  IM1       134             0.0000000000
      8740       404  IM1       H3             -1.1221985820      -25.6984332487      -14.8881637130  IM1       134             0.0000000000
      8741       404  IM1       N1             -2.9380199718      -25.2302306012      -14.0079420441  IM1       134             0.0000000000
      8742       404  IM1       DN1            -2.9213823318      -25.2185584453      -14.0040817488  IM1       134             0.0000000000
      8743       404  IM1       C2             -4.2176526550      -25.7248274040      -13.9224082017  IM1       134             0.0000000000
      8744       404  IM1       DC2            -4.1778294300      -25.7194875200      -13.9225560169  IM1       134             0.0000000000
      8745       404  IM1       H4             -4.4685663585      -26.7782330443      -13.9060414410  IM1       134             0.0000000000
      8746       404  IM1       C3             -5.0371635189      -24.6384114547      -13.8763604179  IM1       134             0.0000000000
      8747       404  IM1       DC3            -5.0230884657      -24.6369526915      -13.8706369166  IM1       134             0.0000000000
      8748       404  IM1       H5             -6.1177499144      -24.5879174935      -13.8246651396  IM1       134             0.0000000000
      8749       404  IM1       C4             -3.0114436558      -23.8766250700      -13.9928576934  IM1       134             0.0000000000
      8750       404  IM1       DC4            -3.0041901419      -23.8842132820      -13.9865312111  IM1       134             0.0000000000
      8751       404  IM1       H6             -2.1404117523      -23.2229655723      -14.0390387028  IM1       134             0.0000000000
      8752       404  IM1       N2             -4.2776201820      -23.4786049523      -13.9067233674  IM1       134             0.0000000000
      8753       404  IM1       DN2            -4.2742354258      -23.4781976963      -13.8987158949  IM1       134             0.0000000000
      8754       404  IM1       H7             -4.6097405772      -22.5354548873      -13.8939172052  IM1       134             0.0000000000
      8755       404  IM1       LPN21          -4.3702988293      -23.1934619549      -13.8965184988  IM1       134             0.0000000000
      8756       405  IM1       C1             19.0224351080      -10.0185423634      -15.3842620102  IM1       135             0.0000000000
      8757       405  IM1       DC1            19.0132377398      -10.0136573228      -15.3709753486  IM1       135             0.0000000000
      8758       405  IM1       H1             18.8101158790      -11.0418768276      -15.0073958273  IM1       135             0.0000000000
      8759       405  IM1       H2             18.3406672967       -9.7839818358      -16.2295400782  IM1       135             0.0000000000
      8760       405  IM1       H3             18.9021130434       -9.2776203232      -14.5651905047  IM1       135             0.0000000000
      8761       405  IM1       N1             20.3645757322       -9.9414657045      -15.8568789740  IM1       135             0.0000000000
      8762       405  IM1       DN1            20.3565542016       -9.9335007372      -15.8512554298  IM1       135             0.0000000000
      8763       405  IM1       C2             21.2725407400      -10.9725908022      -15.9147255444  IM1       135             0.0000000000
      8764       405  IM1       DC2            21.2531008079      -10.9573198716      -15.8974408120  IM1       135             0.0000000000
      8765       405  IM1       H4             21.0509216702      -11.9888234163      -15.6129884702  IM1       135             0.0000000000
      8766       405  IM1       C3             22.3965889690      -10.4388317744      -16.4655787961  IM1       135             0.0000000000
      8767       405  IM1       DC3            22.4075525674      -10.4619582493      -16.4276516303  IM1       135             0.0000000000
      8768       405  IM1       H5             23.3373273062      -10.9022127034      -16.7360940368  IM1       135             0.0000000000
      8769       405  IM1       C4             20.9634375250       -8.8321566467      -16.3485206708  IM1       135             0.0000000000
      8770       405  IM1       DC4            20.9476231786       -8.8348644299      -16.3308813188  IM1       135             0.0000000000
      8771       405  IM1       H6             20.4700534236       -7.8655397208      -16.4501270044  IM1       135             0.0000000000
      8772       405  IM1       N2             22.2096964401       -9.0950925886      -16.7043510034  IM1       135             0.0000000000
      8773       405  IM1       DN2            22.1925771437       -9.1113980170      -16.6832060925  IM1       135             0.0000000000
      8774       405  IM1       H7             22.8648696697       -8.4620297407      -17.1166366687  IM1       135             0.0000000000
      8775       405  IM1       LPN21          22.4051126561       -8.8956474277      -16.8140511871  IM1       135             0.0000000000
      8776       406  IM1       C1             15.8704438364      -13.7962459925      -24.5018695151  IM1       136             0.0000000000
      8777       406  IM1       DC1            15.8307211006      -13.7548957032      -24.4999049075  IM1       136             0.0000000000
      8778       406  IM1       H1             16.9568985340      -13.8192079823      -24.7329754175  IM1       136             0.0000000000
      8779       406  IM1       H2             15.2843912179      -13.8832319361      -25.4417082113  IM1       136             0.0000000000
      8780       406  IM1       H3             15.6397193971      -14.6407330850      -23.8178163127  IM1       136             0.0000000000
      8781       406  IM1       N1             15.5643013336      -12.5633726980      -23.8558072855  IM1       136             0.0000000000
      8782       406  IM1       DN1            15.5077951013      -12.5402386837      -23.8353553328  IM1       136             0.0000000000
      8783       406  IM1       C2             16.4044422658      -11.4898146870      -23.7102667174  IM1       136             0.0000000000
      8784       406  IM1       DC2            16.3149954238      -11.4660567934      -23.7131121513  IM1       136             0.0000000000
      8785       406  IM1       H4             17.4239574068      -11.4828737138      -24.0755470209  IM1       136             0.0000000000
      8786       406  IM1       C3             15.7011986477      -10.5407899130      -23.0483631189  IM1       136             0.0000000000
      8787       406  IM1       DC3            15.6472230762      -10.5048172648      -23.0152615855  IM1       136             0.0000000000
      8788       406  IM1       H5             16.0241582510       -9.5568180180      -22.7315265608  IM1       136             0.0000000000
      8789       406  IM1       C4             14.3799974856      -12.2268145954      -23.3096691544  IM1       136             0.0000000000
      8790       406  IM1       DC4            14.3331724861      -12.2274012299      -23.2874100044  IM1       136             0.0000000000
      8791       406  IM1       H6             13.5017757771      -12.8670336444      -23.3930130212  IM1       136             0.0000000000
      8792       406  IM1       N2             14.4161359610      -10.9981242138      -22.7939481970  IM1       136             0.0000000000
      8793       406  IM1       DN2            14.3775707318      -10.9973885582      -22.7774302203  IM1       136             0.0000000000
      8794       406  IM1       H7             13.6643141526      -10.4901621066      -22.3735454544  IM1       136             0.0000000000
      8795       406  IM1       LPN21          14.1900807642      -10.8585695762      -22.6545797963  IM1       136             0.0000000000
      8796       407  IM1       C1              5.0218628073       11.2410710931      -26.2883130916  IM1       137             0.0000000000
      8797       407  IM1       DC1             5.0468006168       11.2325747095      -26.2882551684  IM1       137             0.0000000000
      8798       407  IM1       H1              5.2398231052       10.5197597438      -27.1047224533  IM1       137             0.0000000000
      8799       407  IM1       H2              5.9455148260       11.7928602337      -26.0113353046  IM1       137             0.0000000000
      8800       407  IM1       H3              4.2413353426       11.9526443446      -26.6329308292  IM1       137             0.0000000000
      8801       407  IM1       N1              4.5262394945       10.5482567617      -25.1364038338  IM1       137             0.0000000000
      8802       407  IM1       DN1             4.5441305535       10.5480950596      -25.1389294307  IM1       137             0.0000000000
      8803       407  IM1       C2              4.3500737150        9.1838548426      -25.0320125681  IM1       137             0.0000000000
      8804       407  IM1       DC2             4.3760439062        9.1992392443      -25.0427994949  IM1       137             0.0000000000
      8805       407  IM1       H4              4.4940629253        8.4904325571      -25.8513547695  IM1       137             0.0000000000
      8806       407  IM1       C3              3.8775264833        8.9635471587      -23.7732486615  IM1       137             0.0000000000
      8807       407  IM1       DC3             3.8976563043        8.9493514633      -23.7844589363  IM1       137             0.0000000000
      8808       407  IM1       H5              3.5569032292        8.0463675867      -23.2948436430  IM1       137             0.0000000000
      8809       407  IM1       C4              4.1747081592       11.1051499567      -23.9495297957  IM1       137             0.0000000000
      8810       407  IM1       DC4             4.2033820978       11.0895176116      -23.9701747879  IM1       137             0.0000000000
      8811       407  IM1       H6              4.1747358486       12.1773353846      -23.7532687263  IM1       137             0.0000000000
      8812       407  IM1       N2              3.8018763468       10.1607358122      -23.0878425400  IM1       137             0.0000000000
      8813       407  IM1       DN2             3.8179245282       10.1466685188      -23.1031196017  IM1       137             0.0000000000
      8814       407  IM1       H7              3.4636917420       10.3050706059      -22.1578970349  IM1       137             0.0000000000
      8815       407  IM1       LPN21           3.7193666881       10.2072958898      -22.8031948360  IM1       137             0.0000000000
      8816       408  IM1       C1            -14.9201216165      -14.3250368912        7.4342439293  IM1       138             0.0000000000
      8817       408  IM1       DC1           -14.9103690438      -14.3194609793        7.4053716911  IM1       138             0.0000000000
      8818       408  IM1       H1            -14.4092109747      -15.3026999515        7.3020839650  IM1       138             0.0000000000
      8819       408  IM1       H2            -14.2488927639      -13.4995078539        7.1144398717  IM1       138             0.0000000000
      8820       408  IM1       H3            -15.8651496448      -14.3181853467        6.8501240084  IM1       138             0.0000000000
      8821       408  IM1       N1            -15.2380681516      -14.1367733869        8.8126359017  IM1       138             0.0000000000
      8822       408  IM1       DN1           -15.2486188871      -14.1073934393        8.7768281238  IM1       138             0.0000000000
      8823       408  IM1       C2            -14.9174303547      -14.9762093749        9.8504478984  IM1       138             0.0000000000
      8824       408  IM1       DC2           -14.9326521295      -14.9468769959        9.7907960078  IM1       138             0.0000000000
      8825       408  IM1       H4            -14.3801397317      -15.9113261004        9.7516324328  IM1       138             0.0000000000
      8826       408  IM1       C3            -15.4320213544      -14.3989185757       10.9742412773  IM1       138             0.0000000000
      8827       408  IM1       DC3           -15.4313029955      -14.3903682918       10.9436178117  IM1       138             0.0000000000
      8828       408  IM1       H5            -15.4255840581      -14.7475328920       11.9995781096  IM1       138             0.0000000000
      8829       408  IM1       C4            -15.9195327594      -13.0860534368        9.3243647977  IM1       138             0.0000000000
      8830       408  IM1       DC4           -15.9220418474      -13.0743818098        9.3021276399  IM1       138             0.0000000000
      8831       408  IM1       H6            -16.2920574411      -12.2548163440        8.7257244575  IM1       138             0.0000000000
      8832       408  IM1       N2            -16.0578423405      -13.2076000921       10.6363694519  IM1       138             0.0000000000
      8833       408  IM1       DN2           -16.0579894579      -13.1969011772       10.6205255976  IM1       138             0.0000000000
      8834       408  IM1       H7            -16.5273321019      -12.5763137348       11.2536675152  IM1       138             0.0000000000
      8835       408  IM1       LPN21         -16.1979551826      -13.0114288396       10.8149338133  IM1       138             0.0000000000
      8836       409  IM1       C1             18.4322619470       10.2062613329      -28.0037388941  IM1       139             0.0000000000
      8837       409  IM1       DC1            18.4222304414       10.2122945512      -28.0022854103  IM1       139             0.0000000000
      8838       409  IM1       H1             19.1765423513       10.8894619938      -28.4659126039  IM1       139             0.0000000000
      8839       409  IM1       H2             17.6086951959       10.0231256888      -28.7265944417  IM1       139             0.0000000000
      8840       409  IM1       H3             18.9275188311        9.2485602088      -27.7356900636  IM1       139             0.0000000000
      8841       409  IM1       N1             17.8899728195       10.7990438137      -26.8144651236  IM1       139             0.0000000000
      8842       409  IM1       DN1            17.8710017061       10.7818700564      -26.8103698750  IM1       139             0.0000000000
      8843       409  IM1       C2             18.1362849379       12.0743516846      -26.3609105631  IM1       139             0.0000000000
      8844       409  IM1       DC2            18.1259519290       12.0421244363      -26.3828483057  IM1       139             0.0000000000
      8845       409  IM1       H4             18.8776332882       12.7400026125      -26.7854108171  IM1       139             0.0000000000
      8846       409  IM1       C3             17.2909606735       12.2705782374      -25.3089590793  IM1       139             0.0000000000
      8847       409  IM1       DC3            17.2763648722       12.2573192336      -25.3249508224  IM1       139             0.0000000000
      8848       409  IM1       H5             17.1774585454       13.1338951720      -24.6649946873  IM1       139             0.0000000000
      8849       409  IM1       C4             16.9117145955       10.2674467611      -26.0390310186  IM1       139             0.0000000000
      8850       409  IM1       DC4            16.9026389095       10.2599325600      -26.0481280702  IM1       139             0.0000000000
      8851       409  IM1       H6             16.5185706784        9.2597454351      -26.1734776581  IM1       139             0.0000000000
      8852       409  IM1       N2             16.5050334610       11.1419314040      -25.1236946892  IM1       139             0.0000000000
      8853       409  IM1       DN2            16.4901137415       11.1365434700      -25.1310460158  IM1       139             0.0000000000
      8854       409  IM1       H7             15.8105536574       10.9992648652      -24.4184684410  IM1       139             0.0000000000
      8855       409  IM1       LPN21          16.2872152682       11.0954646570      -24.9227069376  IM1       139             0.0000000000
      8856       410  IM1       C1            -20.7633122026        0.4901254278        6.9528768120  IM1       140             0.0000000000
      8857       410  IM1       DC1           -20.7609787323        0.4622267414        6.9279695466  IM1       140             0.0000000000
      8858       410  IM1       H1            -21.2075951218       -0.3623807556        6.3959505178  IM1       140             0.0000000000
      8859       410  IM1       H2            -21.5014906769        0.8979504398        7.6761280133  IM1       140             0.0000000000
      8860       410  IM1       H3            -19.8596666776        0.1483933147        7.5014795170  IM1       140             0.0000000000
      8861       410  IM1       N1            -20.3886675848        1.5345613551        6.0504207149  IM1       140             0.0000000000
      8862       410  IM1       DN1           -20.3804708287        1.5223860755        6.0550628846  IM1       140             0.0000000000
      8863       410  IM1       C2            -20.2684599934        1.3915546808        4.6833355691  IM1       140             0.0000000000
      8864       410  IM1       DC2           -20.2695681435        1.3547418254        4.7094599512  IM1       140             0.0000000000
      8865       410  IM1       H4            -20.6592545698        0.5542689240        4.1184274698  IM1       140             0.0000000000
      8866       410  IM1       C3            -19.6519196118        2.5228590043        4.2404385954  IM1       140             0.0000000000
      8867       410  IM1       DC3           -19.6534264174        2.4872705396        4.2522165667  IM1       140             0.0000000000
      8868       410  IM1       H5            -19.4031424943        2.8361933159        3.2340487331  IM1       140             0.0000000000
      8869       410  IM1       C4            -19.8091701687        2.7127516797        6.3975268326  IM1       140             0.0000000000
      8870       410  IM1       DC4           -19.8073260246        2.6773921007        6.3810871928  IM1       140             0.0000000000
      8871       410  IM1       H6            -19.7292529626        3.0768865479        7.4217919535  IM1       140             0.0000000000
      8872       410  IM1       N2            -19.3411579227        3.3325538814        5.3176565901  IM1       140             0.0000000000
      8873       410  IM1       DN2           -19.3393816324        3.3063129943        5.3129144075  IM1       140             0.0000000000
      8874       410  IM1       H7            -18.8944577398        4.2268045584        5.2898236385  IM1       140             0.0000000000
      8875       410  IM1       LPN21         -19.1976424935        3.5959986210        5.3172198738  IM1       140             0.0000000000
      8876       411  IM1       C1             15.1786925116      -18.0621031442      -18.3942431975  IM1       141             0.0000000000
      8877       411  IM1       DC1            15.1449339683      -18.0530683919      -18.3909533740  IM1       141             0.0000000000
      8878       411  IM1       H1             14.5474565153      -17.2520406416      -17.9703789981  IM1       141             0.0000000000
      8879       411  IM1       H2             14.9414918408      -18.2244349807      -19.4674184938  IM1       141             0.0000000000
      8880       411  IM1       H3             16.2495363868      -17.7847865262      -18.2907546005  IM1       141             0.0000000000
      8881       411  IM1       N1             14.9470636284      -19.2896011181      -17.7003506080  IM1       141             0.0000000000
      8882       411  IM1       DN1            14.9200740415      -19.2726492233      -17.6803267993  IM1       141             0.0000000000
      8883       411  IM1       C2             14.2484716472      -19.4115227012      -16.5203035546  IM1       141             0.0000000000
      8884       411  IM1       DC2            14.2219523623      -19.3976226814      -16.5133141037  IM1       141             0.0000000000
      8885       411  IM1       H4             13.7891562351      -18.5750399852      -16.0082342057  IM1       141             0.0000000000
      8886       411  IM1       C3             14.3160374344      -20.7242444633      -16.1761944138  IM1       141             0.0000000000
      8887       411  IM1       DC3            14.2895992287      -20.7208918621      -16.1556067380  IM1       141             0.0000000000
      8888       411  IM1       H5             13.9288948423      -21.2501581289      -15.3122358328  IM1       141             0.0000000000
      8889       411  IM1       C4             15.4087528250      -20.5185879394      -18.0368228091  IM1       141             0.0000000000
      8890       411  IM1       DC4            15.3736114620      -20.4709664064      -18.0028242744  IM1       141             0.0000000000
      8891       411  IM1       H6             16.0521916875      -20.7165464393      -18.8940852324  IM1       141             0.0000000000
      8892       411  IM1       N2             15.0204746027      -21.4182229668      -17.1239355055  IM1       141             0.0000000000
      8893       411  IM1       DN2            14.9891559829      -21.4025890478      -17.0990625365  IM1       141             0.0000000000
      8894       411  IM1       H7             15.2816219507      -22.3833642460      -17.1064891927  IM1       141             0.0000000000
      8895       411  IM1       LPN21          15.0788669022      -21.7124139898      -17.1304148043  IM1       141             0.0000000000
      8896       412  IM1       C1            -26.7743466054      -17.1811976436      -19.2719454655  IM1       142             0.0000000000
      8897       412  IM1       DC1           -26.7661370811      -17.2041452133      -19.2242053583  IM1       142             0.0000000000
      8898       412  IM1       H1            -27.7048642751      -16.9335759596      -18.7177421032  IM1       142             0.0000000000
      8899       412  IM1       H2            -25.9496888961      -16.5142350712      -18.9411561224  IM1       142             0.0000000000
      8900       412  IM1       H3            -26.5085515546      -18.2535368845      -19.1546316005  IM1       142             0.0000000000
      8901       412  IM1       N1            -26.9526040704      -16.9118573596      -20.6341345222  IM1       142             0.0000000000
      8902       412  IM1       DN1           -26.9251873237      -16.9286966661      -20.5986877858  IM1       142             0.0000000000
      8903       412  IM1       C2            -28.0704875453      -16.3715990530      -21.2140456456  IM1       142             0.0000000000
      8904       412  IM1       DC2           -28.0337213979      -16.4155593393      -21.1922242969  IM1       142             0.0000000000
      8905       412  IM1       H4            -28.9777109863      -16.1201168664      -20.6787033829  IM1       142             0.0000000000
      8906       412  IM1       C3            -27.7422713882      -16.1661749181      -22.5169978160  IM1       142             0.0000000000
      8907       412  IM1       DC3           -27.7451617228      -16.1680584769      -22.5073563794  IM1       142             0.0000000000
      8908       412  IM1       H5            -28.3388064613      -15.7685913306      -23.3287626818  IM1       142             0.0000000000
      8909       412  IM1       C4            -25.9877238142      -17.0103483513      -21.5752688620  IM1       142             0.0000000000
      8910       412  IM1       DC4           -25.9882532300      -17.0042950553      -21.5507256935  IM1       142             0.0000000000
      8911       412  IM1       H6            -24.9921581565      -17.4104727019      -21.3833065601  IM1       142             0.0000000000
      8912       412  IM1       N2            -26.4298805608      -16.5558895756      -22.7368270545  IM1       142             0.0000000000
      8913       412  IM1       DN2           -26.4275682430      -16.5503385195      -22.7245229872  IM1       142             0.0000000000
      8914       412  IM1       H7            -25.9271063164      -16.5388062908      -23.6010759889  IM1       142             0.0000000000
      8915       412  IM1       LPN21         -26.2700589386      -16.5440227012      -22.9904334944  IM1       142             0.0000000000
      8916       413  IM1       C1             10.0645323619        5.6354955645       -7.3282972141  IM1       143             0.0000000000
      8917       413  IM1       DC1            10.0696936959        5.6295150191       -7.3451531700  IM1       143             0.0000000000
      8918       413  IM1       H1              9.3098952938        5.5256640718       -8.1362458129  IM1       143             0.0000000000
      8919       413  IM1       H2              9.5414631903        5.8152159209       -6.3647515560  IM1       143             0.0000000000
      8920       413  IM1       H3             10.6778413270        4.7116852413       -7.2593943793  IM1       143             0.0000000000
      8921       413  IM1       N1             10.9255508189        6.7477069614       -7.6014973807  IM1       143             0.0000000000
      8922       413  IM1       DN1            10.9232796368        6.7385058525       -7.6000229283  IM1       143             0.0000000000
      8923       413  IM1       C2             10.7972141651        7.6190024760       -8.6602494465  IM1       143             0.0000000000
      8924       413  IM1       DC2            10.7948822750        7.5796235828       -8.6580479318  IM1       143             0.0000000000
      8925       413  IM1       H4              9.9785637738        7.5970802895       -9.3689242341  IM1       143             0.0000000000
      8926       413  IM1       C3             11.8763891863        8.4472006609       -8.6034870735  IM1       143             0.0000000000
      8927       413  IM1       DC3            11.8605932181        8.4276297614       -8.6145978921  IM1       143             0.0000000000
      8928       413  IM1       H5             12.1736672438        9.2553469907       -9.2603084086  IM1       143             0.0000000000
      8929       413  IM1       C4             12.0564672813        7.0779669133       -6.9295994627  IM1       143             0.0000000000
      8930       413  IM1       DC4            12.0344556880        7.0689599845       -6.9456594174  IM1       143             0.0000000000
      8931       413  IM1       H6             12.3988859310        6.5738900449       -6.0258539349  IM1       143             0.0000000000
      8932       413  IM1       N2             12.6629398449        8.1054197565       -7.5193098538  IM1       143             0.0000000000
      8933       413  IM1       DN2            12.6473447210        8.1002102132       -7.5297669383  IM1       143             0.0000000000
      8934       413  IM1       H7             13.5089675747        8.5494909943       -7.2242881323  IM1       143             0.0000000000
      8935       413  IM1       LPN21          12.9194111890        8.2316245266       -7.4282340302  IM1       143             0.0000000000
      8936       414  IM1       C1             17.3879323779      -20.1124616594       19.2999657589  IM1       144             0.0000000000
      8937       414  IM1       DC1            17.3638956158      -20.0866415797       19.2549166337  IM1       144             0.0000000000
      8938       414  IM1       H1             17.9967500895      -19.9409938456       18.3865869860  IM1       144             0.0000000000
      8939       414  IM1       H2             17.3610996531      -21.1995199417       19.5277931000  IM1       144             0.0000000000
      8940       414  IM1       H3             17.8547153722      -19.5857850573       20.1596438344  IM1       144             0.0000000000
      8941       414  IM1       N1             16.0465965843      -19.6284621742       19.1094084770  IM1       144             0.0000000000
      8942       414  IM1       DN1            16.0305026180      -19.6108660880       19.1029650179  IM1       144             0.0000000000
      8943       414  IM1       C2             15.4652662433      -19.1734551168       17.9365640927  IM1       144             0.0000000000
      8944       414  IM1       DC2            15.4904384809      -19.1693142177       17.9297779339  IM1       144             0.0000000000
      8945       414  IM1       H4             15.9846550414      -19.0997390517       16.9890989387  IM1       144             0.0000000000
      8946       414  IM1       C3             14.1943527807      -18.8269402950       18.2562975415  IM1       144             0.0000000000
      8947       414  IM1       DC3            14.2038611658      -18.8131785733       18.2507441510  IM1       144             0.0000000000
      8948       414  IM1       H5             13.4105921499      -18.4070946328       17.6379627668  IM1       144             0.0000000000
      8949       414  IM1       C4             15.1202441069      -19.5352419250       20.0868073549  IM1       144             0.0000000000
      8950       414  IM1       DC4            15.1267827204      -19.5395503250       20.0735128337  IM1       144             0.0000000000
      8951       414  IM1       H6             15.3026819735      -19.8475850132       21.1150379808  IM1       144             0.0000000000
      8952       414  IM1       N2             13.9788323348      -19.0503811547       19.6024219401  IM1       144             0.0000000000
      8953       414  IM1       DN2            13.9843181492      -19.0432590751       19.5916142017  IM1       144             0.0000000000
      8954       414  IM1       H7             13.1342163015      -18.8921033929       20.1138629498  IM1       144             0.0000000000
      8955       414  IM1       LPN21          13.7288930319      -19.0022418774       19.7612078175  IM1       144             0.0000000000
      8956       415  IM1       C1             -6.6435866664      -13.7300360735       21.7369487454  IM1       145             0.0000000000
      8957       415  IM1       DC1            -6.6118767451      -13.7288176760       21.7282082124  IM1       145             0.0000000000
      8958       415  IM1       H1             -7.2409909426      -12.8131678699       21.9287346425  IM1       145             0.0000000000
      8959       415  IM1       H2             -6.8663476849      -14.4946499452       22.5115868264  IM1       145             0.0000000000
      8960       415  IM1       H3             -6.8841287673      -14.1157321835       20.7231938399  IM1       145             0.0000000000
      8961       415  IM1       N1             -5.2554390307      -13.4403488778       21.8013913547  IM1       145             0.0000000000
      8962       415  IM1       DN1            -5.2254605009      -13.4312760207       21.7950887972  IM1       145             0.0000000000
      8963       415  IM1       C2             -4.6948050054      -12.1834434109       21.7653316071  IM1       145             0.0000000000
      8964       415  IM1       DC2            -4.6801635289      -12.1802262396       21.7763276976  IM1       145             0.0000000000
      8965       415  IM1       H4             -5.3008411591      -11.2862025407       21.7414988263  IM1       145             0.0000000000
      8966       415  IM1       C3             -3.3493602203      -12.3795262460       21.7172049827  IM1       145             0.0000000000
      8967       415  IM1       DC3            -3.3316089067      -12.3700967792       21.7259868473  IM1       145             0.0000000000
      8968       415  IM1       H5             -2.5407217576      -11.6611764232       21.6627406013  IM1       145             0.0000000000
      8969       415  IM1       C4             -4.2506746799      -14.3500296355       21.7682421315  IM1       145             0.0000000000
      8970       415  IM1       DC4            -4.2558045909      -14.3420171719       21.7598921440  IM1       145             0.0000000000
      8971       415  IM1       H6             -4.4141886071      -15.4274210892       21.7439347024  IM1       145             0.0000000000
      8972       415  IM1       N2             -3.0691921582      -13.7354523750       21.7238591465  IM1       145             0.0000000000
      8973       415  IM1       DN2            -3.0670560947      -13.7300070060       21.7258158961  IM1       145             0.0000000000
      8974       415  IM1       H7             -2.1722747858      -14.1730755265       21.6604146485  IM1       145             0.0000000000
      8975       415  IM1       LPN21          -2.8017334790      -13.8711660526       21.7169560562  IM1       145             0.0000000000
      8976       416  IM1       C1             -7.3842316571       -9.6901555961      -14.2042385013  IM1       146             0.0000000000
      8977       416  IM1       DC1            -7.3696632234       -9.7201559402      -14.2026972377  IM1       146             0.0000000000
      8978       416  IM1       H1             -7.7898869660      -10.7124118836      -14.3615816123  IM1       146             0.0000000000
      8979       416  IM1       H2             -7.3932659907       -9.1275150019      -15.1621920198  IM1       146             0.0000000000
      8980       416  IM1       H3             -8.0186298603       -9.1603002680      -13.4618684783  IM1       146             0.0000000000
      8981       416  IM1       N1             -6.0379499066       -9.7537946318      -13.7139538733  IM1       146             0.0000000000
      8982       416  IM1       DN1            -6.0232223122       -9.7666345662      -13.7075859476  IM1       146             0.0000000000
      8983       416  IM1       C2             -5.3270757649      -10.9061536979      -13.4475837630  IM1       146             0.0000000000
      8984       416  IM1       DC2            -5.3372244887      -10.9213826544      -13.4598365769  IM1       146             0.0000000000
      8985       416  IM1       H4             -5.7343284493      -11.9057088243      -13.5365995019  IM1       146             0.0000000000
      8986       416  IM1       C3             -4.1038681988      -10.4980040951      -13.0103138872  IM1       146             0.0000000000
      8987       416  IM1       DC3            -4.1062109714      -10.4986384635      -13.0101759981  IM1       146             0.0000000000
      8988       416  IM1       H5             -3.2480545573      -11.0803405271      -12.6919488580  IM1       146             0.0000000000
      8989       416  IM1       C4             -5.2356329942       -8.6960426883      -13.4315668173  IM1       146             0.0000000000
      8990       416  IM1       DC4            -5.2370410747       -8.7234047894      -13.4300070166  IM1       146             0.0000000000
      8991       416  IM1       H6             -5.5496826024       -7.6569384526      -13.5302340910  IM1       146             0.0000000000
      8992       416  IM1       N2             -4.0493665502       -9.1159257422      -12.9857319068  IM1       146             0.0000000000
      8993       416  IM1       DN2            -4.0419930501       -9.1222904603      -12.9743634741  IM1       146             0.0000000000
      8994       416  IM1       H7             -3.2795594432       -8.5415333121      -12.7073969386  IM1       146             0.0000000000
      8995       416  IM1       LPN21          -3.8222996239       -8.9397743440      -12.8996430230  IM1       146             0.0000000000
      8996       417  IM1       C1            -25.1524865819        6.6451238975       15.7504169845  IM1       147             0.0000000000
      8997       417  IM1       DC1           -25.1587898248        6.6151739109       15.7407304035  IM1       147             0.0000000000
      8998       417  IM1       H1            -25.1821053056        5.7749213540       15.0603508529  IM1       147             0.0000000000
      8999       417  IM1       H2            -24.1565166510        6.7091400058       16.2385428242  IM1       147             0.0000000000
      9000       417  IM1       H3            -25.3514748503        7.5808960893       15.1855673814  IM1       147             0.0000000000
      9001       417  IM1       N1            -26.1431858660        6.5021493371       16.7700811362  IM1       147             0.0000000000
      9002       417  IM1       DN1           -26.1492062727        6.4894401364       16.7667144185  IM1       147             0.0000000000
      9003       417  IM1       C2            -26.9962408113        5.4288497297       16.9346654247  IM1       147             0.0000000000
      9004       417  IM1       DC2           -26.9797134601        5.4112077551       16.9163931058  IM1       147             0.0000000000
      9005       417  IM1       H4            -27.0126529770        4.5628020374       16.2846030928  IM1       147             0.0000000000
      9006       417  IM1       C3            -27.7708753333        5.7341214555       18.0138784955  IM1       147             0.0000000000
      9007       417  IM1       DC3           -27.7637815120        5.7202963713       17.9978476845  IM1       147             0.0000000000
      9008       417  IM1       H5            -28.5682939477        5.1744662794       18.4869521041  IM1       147             0.0000000000
      9009       417  IM1       C4            -26.4158761065        7.4075910062       17.7412408866  IM1       147             0.0000000000
      9010       417  IM1       DC4           -26.4182841663        7.3796795305       17.7238371923  IM1       147             0.0000000000
      9011       417  IM1       H6            -25.8796481437        8.3495895120       17.8561251201  IM1       147             0.0000000000
      9012       417  IM1       N2            -27.4070579929        6.9698571197       18.5162838146  IM1       147             0.0000000000
      9013       417  IM1       DN2           -27.4081446056        6.9538748579       18.5115427579  IM1       147             0.0000000000
      9014       417  IM1       H7            -27.7989530621        7.4434280769       19.3050479133  IM1       147             0.0000000000
      9015       417  IM1       LPN21         -27.5223739117        7.1166198941       18.7511517071  IM1       147             0.0000000000
      9016       418  IM1       C1             -0.3540139852       20.2572775863       16.1933567368  IM1       148             0.0000000000
      9017       418  IM1       DC1            -0.3448910894       20.2852707860       16.1987075448  IM1       148             0.0000000000
      9018       418  IM1       H1             -1.3352488080       20.6289588699       16.5585310054  IM1       148             0.0000000000
      9019       418  IM1       H2             -0.0708680539       19.3499506599       16.7686021021  IM1       148             0.0000000000
      9020       418  IM1       H3             -0.4312754389       20.0027012020       15.1146804493  IM1       148             0.0000000000
      9021       418  IM1       N1              0.6557692782       21.2620881083       16.3684265701  IM1       148             0.0000000000
      9022       418  IM1       DN1             0.6764628968       21.2785049834       16.3716413809  IM1       148             0.0000000000
      9023       418  IM1       C2              0.4512662503       22.5451521668       16.8325633314  IM1       148             0.0000000000
      9024       418  IM1       DC2             0.4701811723       22.5478804615       16.8216191766  IM1       148             0.0000000000
      9025       418  IM1       H4             -0.5144455416       22.9239008293       17.1437532825  IM1       148             0.0000000000
      9026       418  IM1       C3              1.6711971297       23.1448419621       16.8372131211  IM1       148             0.0000000000
      9027       418  IM1       DC3             1.7064673430       23.1455344341       16.8377916259  IM1       148             0.0000000000
      9028       418  IM1       H5              1.9547815338       24.1484060004       17.1293228722  IM1       148             0.0000000000
      9029       418  IM1       C4              1.9806816111       21.1242001743       16.1116115526  IM1       148             0.0000000000
      9030       418  IM1       DC4             1.9843942561       21.1366736025       16.1197838486  IM1       148             0.0000000000
      9031       418  IM1       H6              2.4260803559       20.2075139638       15.7250803771  IM1       148             0.0000000000
      9032       418  IM1       N2              2.6359257798       22.2479852954       16.4150168187  IM1       148             0.0000000000
      9033       418  IM1       DN2             2.6641125789       22.2476877186       16.4566770796  IM1       148             0.0000000000
      9034       418  IM1       H7              3.6136429538       22.4170308897       16.2905470841  IM1       148             0.0000000000
      9035       418  IM1       LPN21           2.9322502521       22.2894450573       16.3932706629  IM1       148             0.0000000000
      9036       419  IM1       C1            -13.7593396452       22.3435605794      -10.3849414967  IM1       149             0.0000000000
      9037       419  IM1       DC1           -13.7271957045       22.4252608891      -10.4040245073  IM1       149             0.0000000000
      9038       419  IM1       H1            -14.7533917375       22.8389469462      -10.4127584940  IM1       149             0.0000000000
      9039       419  IM1       H2            -13.6242424869       21.8425039378       -9.4025912529  IM1       149             0.0000000000
      9040       419  IM1       H3            -13.6922466441       21.6008189338      -11.2084427885  IM1       149             0.0000000000
      9041       419  IM1       N1            -12.7111317701       23.2723724040      -10.5103099338  IM1       149             0.0000000000
      9042       419  IM1       DN1           -12.6791041152       23.3247967824      -10.5183374137  IM1       149             0.0000000000
      9043       419  IM1       C2            -12.8234014091       24.6389541960      -10.6062114699  IM1       149             0.0000000000
      9044       419  IM1       DC2           -12.8241384397       24.6646085779      -10.6047639141  IM1       149             0.0000000000
      9045       419  IM1       H4            -13.7697402085       25.1654444189      -10.5943826092  IM1       149             0.0000000000
      9046       419  IM1       C3            -11.5743148451       25.1086849718      -10.7629825767  IM1       149             0.0000000000
      9047       419  IM1       DC3           -11.5590233276       25.1210783590      -10.7829307401  IM1       149             0.0000000000
      9048       419  IM1       H5            -11.2188351813       26.1260182311      -10.8704825687  IM1       149             0.0000000000
      9049       419  IM1       C4            -11.4048543844       22.9550677728      -10.5782734594  IM1       149             0.0000000000
      9050       419  IM1       DC4           -11.4080633430       22.9707434182      -10.5747349348  IM1       149             0.0000000000
      9051       419  IM1       H6            -11.0197840183       21.9367505116      -10.5248808597  IM1       149             0.0000000000
      9052       419  IM1       N2            -10.6816829556       24.0585243096      -10.7260935429  IM1       149             0.0000000000
      9053       419  IM1       DN2           -10.6746584064       24.0733859969      -10.7297658471  IM1       149             0.0000000000
      9054       419  IM1       H7             -9.6853425325       24.1123280143      -10.7925083208  IM1       149             0.0000000000
      9055       419  IM1       LPN21         -10.3825473511       24.0683388553      -10.7466255867  IM1       149             0.0000000000
      9056       420  IM1       C1            -24.7391366079       10.2705962954       24.1072329089  IM1       150             0.0000000000
      9057       420  IM1       DC1           -24.7557876311       10.2475840439       24.1265233343  IM1       150             0.0000000000
      9058       420  IM1       H1            -24.8181435772        9.1754937298       23.9374410637  IM1       150             0.0000000000
      9059       420  IM1       H2            -24.0137242527       10.4749584898       24.9235257536  IM1       150             0.0000000000
      9060       420  IM1       H3            -24.3932526083       10.7716118225       23.1778951324  IM1       150             0.0000000000
      9061       420  IM1       N1            -26.0171148671       10.8077715342       24.4723819772  IM1       150             0.0000000000
      9062       420  IM1       DN1           -26.0262292642       10.8135487237       24.4845317513  IM1       150             0.0000000000
      9063       420  IM1       C2            -27.1637781679       10.0907690246       24.7419639933  IM1       150             0.0000000000
      9064       420  IM1       DC2           -27.1548089987       10.1048149332       24.7460942918  IM1       150             0.0000000000
      9065       420  IM1       H4            -27.2521564798        9.0188982996       24.6147970782  IM1       150             0.0000000000
      9066       420  IM1       C3            -28.0857126403       10.9983314842       25.1650186173  IM1       150             0.0000000000
      9067       420  IM1       DC3           -28.0930110219       11.0099249564       25.1749334383  IM1       150             0.0000000000
      9068       420  IM1       H5            -29.1155937198       10.8503877736       25.4655957631  IM1       150             0.0000000000
      9069       420  IM1       C4            -26.2749933103       12.1110474020       24.7376017580  IM1       150             0.0000000000
      9070       420  IM1       DC4           -26.2799607765       12.0997076358       24.7549932697  IM1       150             0.0000000000
      9071       420  IM1       H6            -25.5367071917       12.9013154987       24.6015505083  IM1       150             0.0000000000
      9072       420  IM1       N2            -27.5266637512       12.2656516452       25.1765780110  IM1       150             0.0000000000
      9073       420  IM1       DN2           -27.5338821767       12.2739155108       25.1864163432  IM1       150             0.0000000000
      9074       420  IM1       H7            -27.9679514903       13.1228035590       25.4422012932  IM1       150             0.0000000000
      9075       420  IM1       LPN21         -27.6529669351       12.5250637903       25.2587537049  IM1       150             0.0000000000
      9076       421  IM1       C1              0.8785176676      -15.7970566686       -0.9953942069  IM1       151             0.0000000000
      9077       421  IM1       DC1             0.8983687951      -15.7902629419       -0.9491620827  IM1       151             0.0000000000
      9078       421  IM1       H1              1.5379665939      -15.9609593697       -0.1164266204  IM1       151             0.0000000000
      9079       421  IM1       H2              1.4658920085      -15.4371711640       -1.8670563027  IM1       151             0.0000000000
      9080       421  IM1       H3              0.3689339325      -16.7456454056       -1.2689354753  IM1       151             0.0000000000
      9081       421  IM1       N1             -0.1117197370      -14.8137103164       -0.6902607143  IM1       151             0.0000000000
      9082       421  IM1       DN1            -0.1148735630      -14.8048548373       -0.6628735968  IM1       151             0.0000000000
      9083       421  IM1       C2             -0.1909611941      -14.0617003192        0.4655286325  IM1       151             0.0000000000
      9084       421  IM1       DC2            -0.1814920913      -14.0521204141        0.4790772205  IM1       151             0.0000000000
      9085       421  IM1       H4              0.4867866928      -14.1703405159        1.3032303154  IM1       151             0.0000000000
      9086       421  IM1       C3             -1.2811173110      -13.2613173289        0.3142810711  IM1       151             0.0000000000
      9087       421  IM1       DC3            -1.2905839526      -13.2506881125        0.3312085106  IM1       151             0.0000000000
      9088       421  IM1       H5             -1.7138475980      -12.5298170663        0.9855044799  IM1       151             0.0000000000
      9089       421  IM1       C4             -1.1355402904      -14.4472531015       -1.4981099229  IM1       151             0.0000000000
      9090       421  IM1       DC4            -1.1233231948      -14.4442970276       -1.4609352681  IM1       151             0.0000000000
      9091       421  IM1       H6             -1.2681183946      -14.8391454316       -2.5065460627  IM1       151             0.0000000000
      9092       421  IM1       N2             -1.8729044049      -13.4993604423       -0.9082476455  IM1       151             0.0000000000
      9093       421  IM1       DN2            -1.8644410170      -13.4813109693       -0.8905072667  IM1       151             0.0000000000
      9094       421  IM1       H7             -2.6717466492      -13.0431960791       -1.3003766325  IM1       151             0.0000000000
      9095       421  IM1       LPN21          -2.1168913711      -13.3690829364       -1.0244291058  IM1       151             0.0000000000
      9096       422  IM1       C1             -1.9529185722       15.7461067518      -28.3027822227  IM1       152             0.0000000000
      9097       422  IM1       DC1            -1.9407668978       15.7307952631      -28.3096241772  IM1       152             0.0000000000
      9098       422  IM1       H1             -2.8731366077       15.1524006404      -28.1156116556  IM1       152             0.0000000000
      9099       422  IM1       H2             -1.1661963446       15.4531805744      -27.5750574181  IM1       152             0.0000000000
      9100       422  IM1       H3             -1.6107353583       15.5826182126      -29.3470538099  IM1       152             0.0000000000
      9101       422  IM1       N1             -2.2446042638       17.1300697158      -28.1246145972  IM1       152             0.0000000000
      9102       422  IM1       DN1            -2.1974594770       17.1258733136      -28.1328146490  IM1       152             0.0000000000
      9103       422  IM1       C2             -3.4769079199       17.6926402579      -27.8975940398  IM1       152             0.0000000000
      9104       422  IM1       DC2            -3.4248363205       17.6554573537      -27.9055194192  IM1       152             0.0000000000
      9105       422  IM1       H4             -4.3959450971       17.1350391078      -27.7659102362  IM1       152             0.0000000000
      9106       422  IM1       C3             -3.2756107591       19.0406366214      -27.8641285246  IM1       152             0.0000000000
      9107       422  IM1       DC3            -3.2468148439       19.0091711317      -27.8610277644  IM1       152             0.0000000000
      9108       422  IM1       H5             -3.9831844410       19.8452395665      -27.7065132160  IM1       152             0.0000000000
      9109       422  IM1       C4             -1.3423921848       18.1308931148      -28.2210623976  IM1       152             0.0000000000
      9110       422  IM1       DC4            -1.3180715986       18.1260270597      -28.2377290797  IM1       152             0.0000000000
      9111       422  IM1       H6             -0.2815730286       17.9718246222      -28.4146080835  IM1       152             0.0000000000
      9112       422  IM1       N2             -1.9263259224       19.3081081342      -28.0679083193  IM1       152             0.0000000000
      9113       422  IM1       DN2            -1.9028466601       19.3005124018      -28.0783801799  IM1       152             0.0000000000
      9114       422  IM1       H7             -1.4914639311       20.2075888021      -28.1106818705  IM1       152             0.0000000000
      9115       422  IM1       LPN21          -1.7859072672       19.5730538386      -28.0772021338  IM1       152             0.0000000000
      9116       423  IM1       C1            -18.9284097525      -24.0382494798      -16.6303875327  IM1       153             0.0000000000
      9117       423  IM1       DC1           -18.9220789833      -24.0274114275      -16.6295280470  IM1       153             0.0000000000
      9118       423  IM1       H1            -18.4383381301      -24.9058675323      -16.1390732533  IM1       153             0.0000000000
      9119       423  IM1       H2            -19.2755627628      -24.3509703301      -17.6383614699  IM1       153             0.0000000000
      9120       423  IM1       H3            -19.7908909369      -23.7097542030      -16.0118909203  IM1       153             0.0000000000
      9121       423  IM1       N1            -18.0012896764      -22.9490197930      -16.7704294048  IM1       153             0.0000000000
      9122       423  IM1       DN1           -18.0156943795      -22.9332381215      -16.7731580650  IM1       153             0.0000000000
      9123       423  IM1       C2            -16.6668574555      -22.9894573659      -16.4406862800  IM1       153             0.0000000000
      9124       423  IM1       DC2           -16.6985486825      -23.0008381181      -16.4572351181  IM1       153             0.0000000000
      9125       423  IM1       H4            -16.1918588040      -23.8174533302      -15.9291318213  IM1       153             0.0000000000
      9126       423  IM1       C3            -16.1407152477      -21.7956305844      -16.8340495422  IM1       153             0.0000000000
      9127       423  IM1       DC3           -16.1479189623      -21.7959190850      -16.8397450351  IM1       153             0.0000000000
      9128       423  IM1       H5            -15.1289646538      -21.4219823811      -16.7358825625  IM1       153             0.0000000000
      9129       423  IM1       C4            -18.2446238099      -21.7404802022      -17.3394408203  IM1       153             0.0000000000
      9130       423  IM1       DC4           -18.2547805036      -21.7440962676      -17.3367928491  IM1       153             0.0000000000
      9131       423  IM1       H6            -19.2176730368      -21.4260714696      -17.7168296793  IM1       153             0.0000000000
      9132       423  IM1       N2            -17.1355532086      -21.0067720857      -17.3856870249  IM1       153             0.0000000000
      9133       423  IM1       DN2           -17.1404086798      -21.0055772931      -17.3819834749  IM1       153             0.0000000000
      9134       423  IM1       H7            -17.0389208322      -20.0838480696      -17.7583442993  IM1       153             0.0000000000
      9135       423  IM1       LPN21         -17.1147046731      -20.7282090594      -17.4950852832  IM1       153             0.0000000000
      9136       424  IM1       C1              4.6293550934      -23.9762064866      -26.7499327718  IM1       154             0.0000000000
      9137       424  IM1       DC1             4.6574475916      -23.9837840718      -26.7181864529  IM1       154             0.0000000000
      9138       424  IM1       H1              3.6023341639      -24.3319041993      -26.5196543532  IM1       154             0.0000000000
      9139       424  IM1       H2              5.2961110172      -24.8479109672      -26.9228166582  IM1       154             0.0000000000
      9140       424  IM1       H3              4.5802650141      -23.3369148800      -27.6572460616  IM1       154             0.0000000000
      9141       424  IM1       N1              5.1437819418      -23.1985454525      -25.6593564255  IM1       154             0.0000000000
      9142       424  IM1       DN1             5.1649443019      -23.1884360010      -25.6353212879  IM1       154             0.0000000000
      9143       424  IM1       C2              4.4699086606      -22.8903491794      -24.5009011418  IM1       154             0.0000000000
      9144       424  IM1       DC2             4.4981060121      -22.8967121174      -24.4859205830  IM1       154             0.0000000000
      9145       424  IM1       H4              3.4478212215      -23.1971226373      -24.3161951257  IM1       154             0.0000000000
      9146       424  IM1       C3              5.3203820464      -22.1352274182      -23.7563338585  IM1       154             0.0000000000
      9147       424  IM1       DC3             5.3378593930      -22.1298325315      -23.7269218224  IM1       154             0.0000000000
      9148       424  IM1       H5              5.1722533027      -21.6748186863      -22.7873288662  IM1       154             0.0000000000
      9149       424  IM1       C4              6.3757917612      -22.6399212241      -25.5731716469  IM1       154             0.0000000000
      9150       424  IM1       DC4             6.3834653851      -22.6467042524      -25.5706564147  IM1       154             0.0000000000
      9151       424  IM1       H6              7.1235393049      -22.7074963639      -26.3633660605  IM1       154             0.0000000000
      9152       424  IM1       N2              6.5264397763      -22.0001761253      -24.4127402670  IM1       154             0.0000000000
      9153       424  IM1       DN2             6.5322105460      -22.0054440584      -24.4017915011  IM1       154             0.0000000000
      9154       424  IM1       H7              7.3292806770      -21.4875060586      -24.1084116769  IM1       154             0.0000000000
      9155       424  IM1       LPN21           6.7743929041      -21.8586002907      -24.3206776282  IM1       154             0.0000000000
      9156       425  IM1       C1              2.1217777235        0.3997350181       28.9844783396  IM1       155             0.0000000000
      9157       425  IM1       DC1             2.1038107726        0.4105637998       29.0392336540  IM1       155             0.0000000000
      9158       425  IM1       H1              1.8117425123        1.4472136470       29.1869325112  IM1       155             0.0000000000
      9159       425  IM1       H2              2.3900304817       -0.1263991955       29.9255119458  IM1       155             0.0000000000
      9160       425  IM1       H3              1.3101901803       -0.1313897746       28.4426729186  IM1       155             0.0000000000
      9161       425  IM1       N1              3.2855891950        0.3897285579       28.1677659549  IM1       155             0.0000000000
      9162       425  IM1       DN1             3.2606339775        0.3860938440       28.1937134324  IM1       155             0.0000000000
      9163       425  IM1       C2              3.9852216377        1.5028027647       27.7705250420  IM1       155             0.0000000000
      9164       425  IM1       DC2             3.9736550638        1.4688018605       27.7957356313  IM1       155             0.0000000000
      9165       425  IM1       H4              3.6670734109        2.5259978311       27.9278227276  IM1       155             0.0000000000
      9166       425  IM1       C3              5.0614508323        1.0384316702       27.0832685502  IM1       155             0.0000000000
      9167       425  IM1       DC3             5.0839669361        1.0283127028       27.1004656141  IM1       155             0.0000000000
      9168       425  IM1       H5              5.8291151088        1.5878794077       26.5525259175  IM1       155             0.0000000000
      9169       425  IM1       C4              3.9644356868       -0.7060740759       27.7408129231  IM1       155             0.0000000000
      9170       425  IM1       DC4             3.9583598982       -0.6757330303       27.7587767743  IM1       155             0.0000000000
      9171       425  IM1       H6              3.6229206897       -1.7295406289       27.8956797103  IM1       155             0.0000000000
      9172       425  IM1       N2              5.0736261335       -0.3424528456       27.0962794169  IM1       155             0.0000000000
      9173       425  IM1       DN2             5.0873443776       -0.3340830352       27.1081271092  IM1       155             0.0000000000
      9174       425  IM1       H7              5.7238478736       -0.9516653758       26.6423281180  IM1       155             0.0000000000
      9175       425  IM1       LPN21           5.2786687129       -0.5285265662       26.9808059951  IM1       155             0.0000000000
      9176       426  IM1       C1             11.1316072481       -0.1533661764       -2.7788077457  IM1       156             0.0000000000
      9177       426  IM1       DC1            11.1433661569       -0.1561908068       -2.7880607328  IM1       156             0.0000000000
      9178       426  IM1       H1             11.8854488756       -0.6164124770       -3.4508434014  IM1       156             0.0000000000
      9179       426  IM1       H2             11.2957781240       -0.5077805413       -1.7387311219  IM1       156             0.0000000000
      9180       426  IM1       H3             11.2089905896        0.9539616224       -2.8252616406  IM1       156             0.0000000000
      9181       426  IM1       N1              9.8154458507       -0.5352152131       -3.1848501810  IM1       156             0.0000000000
      9182       426  IM1       DN1             9.8168102543       -0.5310362844       -3.1776703894  IM1       156             0.0000000000
      9183       426  IM1       C2              9.4918958050       -1.3734684014       -4.2310706440  IM1       156             0.0000000000
      9184       426  IM1       DC2             9.5214097015       -1.3720628730       -4.2053474508  IM1       156             0.0000000000
      9185       426  IM1       H4             10.2081980542       -1.7881052621       -4.9295521123  IM1       156             0.0000000000
      9186       426  IM1       C3              8.1371255722       -1.5189400086       -4.1900827110  IM1       156             0.0000000000
      9187       426  IM1       DC3             8.1675529036       -1.5242508352       -4.1795962857  IM1       156             0.0000000000
      9188       426  IM1       H5              7.4737405783       -2.0811980887       -4.8355865462  IM1       156             0.0000000000
      9189       426  IM1       C4              8.6670070104       -0.2029426607       -2.5478556416  IM1       156             0.0000000000
      9190       426  IM1       DC4             8.6859122090       -0.2205529589       -2.5458649487  IM1       156             0.0000000000
      9191       426  IM1       H6              8.6200706982        0.4560629495       -1.6809020159  IM1       156             0.0000000000
      9192       426  IM1       N2              7.6298420674       -0.8041448160       -3.1187695218  IM1       156             0.0000000000
      9193       426  IM1       DN2             7.6528536273       -0.8161951555       -3.1156415677  IM1       156             0.0000000000
      9194       426  IM1       H7              6.6692350290       -0.7153854604       -2.8554144486  IM1       156             0.0000000000
      9195       426  IM1       LPN21           7.3451589491       -0.7831738686       -3.0264887463  IM1       156             0.0000000000
      9196       427  IM1       C1            -11.6148559979        6.5012633515       -4.6744690387  IM1       157             0.0000000000
      9197       427  IM1       DC1           -11.6007109982        6.4802010369       -4.6787901551  IM1       157             0.0000000000
      9198       427  IM1       H1            -11.3621987264        5.4785268032       -4.3216301852  IM1       157             0.0000000000
      9199       427  IM1       H2            -12.4424141653        6.4595039831       -5.4145532465  IM1       157             0.0000000000
      9200       427  IM1       H3            -11.9202820984        7.1328060444       -3.8129647000  IM1       157             0.0000000000
      9201       427  IM1       N1            -10.4802716505        7.0961540802       -5.2993798428  IM1       157             0.0000000000
      9202       427  IM1       DN1           -10.4735117987        7.0873816274       -5.3044128513  IM1       157             0.0000000000
      9203       427  IM1       C2             -9.2071712930        6.5673269960       -5.3457210367  IM1       157             0.0000000000
      9204       427  IM1       DC2            -9.2201526178        6.5487137225       -5.3461727735  IM1       157             0.0000000000
      9205       427  IM1       H4             -8.9286369385        5.6109203387       -4.9207576041  IM1       157             0.0000000000
      9206       427  IM1       C3             -8.4445092333        7.5004992937       -5.9750015316  IM1       157             0.0000000000
      9207       427  IM1       DC3            -8.4442125225        7.4777064303       -5.9896813952  IM1       157             0.0000000000
      9208       427  IM1       H5             -7.3858203156        7.5051863155       -6.2031348422  IM1       157             0.0000000000
      9209       427  IM1       C4            -10.4553394993        8.3068624881       -5.9071969474  IM1       157             0.0000000000
      9210       427  IM1       DC4           -10.4521218729        8.2766309573       -5.9040126255  IM1       157             0.0000000000
      9211       427  IM1       H6            -11.3239228998        8.9592583685       -5.9968768877  IM1       157             0.0000000000
      9212       427  IM1       N2             -9.2328451109        8.5703832806       -6.3576302781  IM1       157             0.0000000000
      9213       427  IM1       DN2            -9.2290804453        8.5459348766       -6.3663592227  IM1       157             0.0000000000
      9214       427  IM1       H7             -8.9371436468        9.4084941437       -6.8160305694  IM1       157             0.0000000000
      9215       427  IM1       LPN21          -9.1530412251        8.8156489361       -6.5108493957  IM1       157             0.0000000000
      9216       428  IM1       C1            -10.8736444671       -9.5054774516      -24.6606131509  IM1       158             0.0000000000
      9217       428  IM1       DC1           -10.8869887091       -9.5435915988      -24.6382779151  IM1       158             0.0000000000
      9218       428  IM1       H1            -11.7606263830       -8.8475998203      -24.7821907177  IM1       158             0.0000000000
      9219       428  IM1       H2            -10.3273685976       -9.5723284489      -25.6257217557  IM1       158             0.0000000000
      9220       428  IM1       H3            -10.2011818031       -9.0746989380      -23.8882499994  IM1       158             0.0000000000
      9221       428  IM1       N1            -11.2766531662      -10.8183854939      -24.2697836453  IM1       158             0.0000000000
      9222       428  IM1       DN1           -11.2752912715      -10.8545753625      -24.2511148402  IM1       158             0.0000000000
      9223       428  IM1       C2            -12.5612415344      -11.2549559597      -24.0247706727  IM1       158             0.0000000000
      9224       428  IM1       DC2           -12.5418871865      -11.2805630983      -24.0104469720  IM1       158             0.0000000000
      9225       428  IM1       H4            -13.4393181289      -10.6410082080      -24.1826904384  IM1       158             0.0000000000
      9226       428  IM1       C3            -12.4474266252      -12.5397873152      -23.5968943340  IM1       158             0.0000000000
      9227       428  IM1       DC3           -12.4208149072      -12.5721219538      -23.5674062983  IM1       158             0.0000000000
      9228       428  IM1       H5            -13.2207896298      -13.2506680615      -23.3333659106  IM1       158             0.0000000000
      9229       428  IM1       C4            -10.4340808911      -11.8365287125      -23.9827067922  IM1       158             0.0000000000
      9230       428  IM1       DC4           -10.4368651660      -11.8512075694      -23.9625065504  IM1       158             0.0000000000
      9231       428  IM1       H6             -9.3573159293      -11.7754844155      -24.1406650526  IM1       158             0.0000000000
      9232       428  IM1       N2            -11.1073362122      -12.8956918679      -23.5283146772  IM1       158             0.0000000000
      9233       428  IM1       DN2           -11.0840110133      -12.9194139210      -23.4862110028  IM1       158             0.0000000000
      9234       428  IM1       H7            -10.7304956631      -13.7944350748      -23.3041454362  IM1       158             0.0000000000
      9235       428  IM1       LPN21         -10.9860029912      -13.1530485973      -23.4332054593  IM1       158             0.0000000000
      9236       429  IM1       C1            -22.5998775220        6.7585942194       26.0685320563  IM1       159             0.0000000000
      9237       429  IM1       DC1           -22.5952398546        6.7553056184       26.0854642264  IM1       159             0.0000000000
      9238       429  IM1       H1            -21.9533819973        7.3666927430       26.7367990105  IM1       159             0.0000000000
      9239       429  IM1       H2            -22.3289423223        6.9576857781       25.0096280621  IM1       159             0.0000000000
      9240       429  IM1       H3            -22.4737577466        5.6795404248       26.3010351979  IM1       159             0.0000000000
      9241       429  IM1       N1            -23.9726754528        7.1091110793       26.2633209787  IM1       159             0.0000000000
      9242       429  IM1       DN1           -23.9714918147        7.1039795246       26.2631062173  IM1       159             0.0000000000
      9243       429  IM1       C2            -24.4570738365        8.0309732305       27.1674063031  IM1       159             0.0000000000
      9244       429  IM1       DC2           -24.4322987604        8.0179087655       27.1663564684  IM1       159             0.0000000000
      9245       429  IM1       H4            -23.8321201782        8.6462099711       27.8028633672  IM1       159             0.0000000000
      9246       429  IM1       C3            -25.8112651725        8.0154495624       27.0239770784  IM1       159             0.0000000000
      9247       429  IM1       DC3           -25.7957267436        8.0125096547       27.0361200714  IM1       159             0.0000000000
      9248       429  IM1       H5            -26.5738148255        8.6118084602       27.5095314954  IM1       159             0.0000000000
      9249       429  IM1       C4            -25.0310564058        6.5660373144       25.6126699086  IM1       159             0.0000000000
      9250       429  IM1       DC4           -25.0136224633        6.5694176692       25.6236303361  IM1       159             0.0000000000
      9251       429  IM1       H6            -24.9423284797        5.8137423715       24.8289099483  IM1       159             0.0000000000
      9252       429  IM1       N2            -26.1682272577        7.0914448004       26.0571407827  IM1       159             0.0000000000
      9253       429  IM1       DN2           -26.1562712992        7.0966205087       26.0650373563  IM1       159             0.0000000000
      9254       429  IM1       H7            -27.0899574111        6.8841229997       25.7293737968  IM1       159             0.0000000000
      9255       429  IM1       LPN21         -26.4428242603        7.0181491355       25.9610979190  IM1       159             0.0000000000
      9256       430  IM1       C1             -0.8701474281       -3.4368771302       17.1801386822  IM1       160             0.0000000000
      9257       430  IM1       DC1            -0.8698483307       -3.4505040454       17.1546711999  IM1       160             0.0000000000
      9258       430  IM1       H1             -0.5731162876       -3.9949170486       16.2665277414  IM1       160             0.0000000000
      9259       430  IM1       H2             -1.2334155871       -2.4239415370       16.9038802368  IM1       160             0.0000000000
      9260       430  IM1       H3             -1.6647676924       -3.9938426350       17.7211461351  IM1       160             0.0000000000
      9261       430  IM1       N1              0.2530902601       -3.2940928646       18.0517017574  IM1       160             0.0000000000
      9262       430  IM1       DN1             0.2367209408       -3.2910924602       18.0497313963  IM1       160             0.0000000000
      9263       430  IM1       C2              1.4896531621       -3.8783132104       17.8929808560  IM1       160             0.0000000000
      9264       430  IM1       DC2             1.4578840432       -3.8772103885       17.8667266595  IM1       160             0.0000000000
      9265       430  IM1       H4              1.7838188319       -4.4988814585       17.0555737816  IM1       160             0.0000000000
      9266       430  IM1       C3              2.2123616754       -3.5210139854       18.9910115706  IM1       160             0.0000000000
      9267       430  IM1       DC3             2.1989434018       -3.4920791010       18.9679696532  IM1       160             0.0000000000
      9268       430  IM1       H5              3.2417518652       -3.7407110505       19.2459194690  IM1       160             0.0000000000
      9269       430  IM1       C4              0.2636054364       -2.6039624778       19.2180704007  IM1       160             0.0000000000
      9270       430  IM1       DC4             0.2672950184       -2.6041449677       19.2027668535  IM1       160             0.0000000000
      9271       430  IM1       H6             -0.6059263193       -2.0791918717       19.6138359080  IM1       160             0.0000000000
      9272       430  IM1       N2              1.4502916630       -2.7006224065       19.8115397104  IM1       160             0.0000000000
      9273       430  IM1       DN2             1.4562107157       -2.6867996922       19.8193174534  IM1       160             0.0000000000
      9274       430  IM1       H7              1.7147650327       -2.3058780669       20.6914435364  IM1       160             0.0000000000
      9275       430  IM1       LPN21           1.5277180222       -2.5685514645       20.0695366585  IM1       160             0.0000000000
      9276       431  IM1       C1            -22.2579457405        1.1768787853       26.9945063980  IM1       161             0.0000000000
      9277       431  IM1       DC1           -22.2553428222        1.1926019656       26.9782249872  IM1       161             0.0000000000
      9278       431  IM1       H1            -21.8957107598        2.0695685529       27.5478704722  IM1       161             0.0000000000
      9279       431  IM1       H2            -21.5226424068        0.8950312872       26.2107896144  IM1       161             0.0000000000
      9280       431  IM1       H3            -22.3821885472        0.3373716593       27.7115227928  IM1       161             0.0000000000
      9281       431  IM1       N1            -23.5231240382        1.4574516133       26.3756077073  IM1       161             0.0000000000
      9282       431  IM1       DN1           -23.5244861255        1.4327407640       26.3601891633  IM1       161             0.0000000000
      9283       431  IM1       C2            -24.1572379688        2.6792281818       26.3258906146  IM1       161             0.0000000000
      9284       431  IM1       DC2           -24.1161702016        2.6561515504       26.3354072665  IM1       161             0.0000000000
      9285       431  IM1       H4            -23.8255468978        3.5615444004       26.8591711448  IM1       161             0.0000000000
      9286       431  IM1       C3            -25.2438812512        2.5071294829       25.5150385032  IM1       161             0.0000000000
      9287       431  IM1       DC3           -25.2177509967        2.4886757871       25.5372097565  IM1       161             0.0000000000
      9288       431  IM1       H5            -26.0039324620        3.2174122744       25.2138583030  IM1       161             0.0000000000
      9289       431  IM1       C4            -24.2268953358        0.5954123481       25.6003166403  IM1       161             0.0000000000
      9290       431  IM1       DC4           -24.2188109496        0.5802107539       25.5958488920  IM1       161             0.0000000000
      9291       431  IM1       H6            -23.9092003025       -0.4282724874       25.4022277126  IM1       161             0.0000000000
      9292       431  IM1       N2            -25.2836932611        1.1911802726       25.0637776776  IM1       161             0.0000000000
      9293       431  IM1       DN2           -25.2787933813        1.1745890402       25.0649513313  IM1       161             0.0000000000
      9294       431  IM1       H7            -25.9529357853        0.7906412706       24.4379318885  IM1       161             0.0000000000
      9295       431  IM1       LPN21         -25.4839922740        1.0595746479       24.8833330462  IM1       161             0.0000000000
      9296       432  IM1       C1            -16.1583369773        0.9666057506      -13.5980797932  IM1       162             0.0000000000
      9297       432  IM1       DC1           -16.1334283770        0.9839328084      -13.6166241133  IM1       162             0.0000000000
      9298       432  IM1       H1            -16.3996088421       -0.0233107476      -14.0409953763  IM1       162             0.0000000000
      9299       432  IM1       H2            -17.0114649200        1.6656142957      -13.7317987871  IM1       162             0.0000000000
      9300       432  IM1       H3            -15.9625483486        0.8312330190      -12.5128784122  IM1       162             0.0000000000
      9301       432  IM1       N1            -14.9935045488        1.5111652333      -14.2222050220  IM1       162             0.0000000000
      9302       432  IM1       DN1           -14.9646609605        1.5247162215      -14.2381543713  IM1       162             0.0000000000
      9303       432  IM1       C2            -14.0598802443        0.8161506823      -14.9523188777  IM1       162             0.0000000000
      9304       432  IM1       DC2           -14.0380610791        0.8472720153      -14.9601656461  IM1       162             0.0000000000
      9305       432  IM1       H4            -14.2106013416       -0.2138825063      -15.2509888984  IM1       162             0.0000000000
      9306       432  IM1       C3            -13.0516233023        1.6916290463      -15.2140489797  IM1       162             0.0000000000
      9307       432  IM1       DC3           -13.0187320527        1.7107491331      -15.2052958210  IM1       162             0.0000000000
      9308       432  IM1       H5            -12.1616514583        1.5793185140      -15.8208648177  IM1       162             0.0000000000
      9309       432  IM1       C4            -14.5158240407        2.7608741521      -14.0441804497  IM1       162             0.0000000000
      9310       432  IM1       DC4           -14.4992744567        2.7523033232      -14.0454598869  IM1       162             0.0000000000
      9311       432  IM1       H6            -15.0514187030        3.5246794242      -13.4804075662  IM1       162             0.0000000000
      9312       432  IM1       N2            -13.3192208515        2.9001535588      -14.6163343778  IM1       162             0.0000000000
      9313       432  IM1       DN2           -13.2980445437        2.9098397660      -14.6077173495  IM1       162             0.0000000000
      9314       432  IM1       H7            -12.7713644122        3.7358469719      -14.6546728858  IM1       162             0.0000000000
      9315       432  IM1       LPN21         -13.1490220843        3.1471559365      -14.6116221538  IM1       162             0.0000000000
      9316       433  IM1       C1             20.4620141242        7.6545244615      -19.3086795252  IM1       163             0.0000000000
      9317       433  IM1       DC1            20.4774708959        7.6440533284      -19.3152013849  IM1       163             0.0000000000
      9318       433  IM1       H1             21.1677686847        8.1180718769      -20.0307288967  IM1       163             0.0000000000
      9319       433  IM1       H2             19.7517905400        6.9947424306      -19.8514420257  IM1       163             0.0000000000
      9320       433  IM1       H3             21.0326343162        7.0651751506      -18.5594259046  IM1       163             0.0000000000
      9321       433  IM1       N1             19.7158873792        8.6728684975      -18.6283258363  IM1       163             0.0000000000
      9322       433  IM1       DN1            19.7250892771        8.6459758730      -18.6275081309  IM1       163             0.0000000000
      9323       433  IM1       C2             19.8948294488       10.0325645312      -18.7542538825  IM1       163             0.0000000000
      9324       433  IM1       DC2            19.8996761311        9.9848238365      -18.7629839047  IM1       163             0.0000000000
      9325       433  IM1       H4             20.6011916084       10.5053232897      -19.4254026425  IM1       163             0.0000000000
      9326       433  IM1       C3             19.0346802891       10.6127552944      -17.8725936868  IM1       163             0.0000000000
      9327       433  IM1       DC3            19.0516623410       10.5954049808      -17.8853744232  IM1       163             0.0000000000
      9328       433  IM1       H5             18.8616638508       11.6594341242      -17.6548375370  IM1       163             0.0000000000
      9329       433  IM1       C4             18.7557909934        8.4702457379      -17.6906961157  IM1       163             0.0000000000
      9330       433  IM1       DC4            18.7853541722        8.4719870468      -17.6971506280  IM1       163             0.0000000000
      9331       433  IM1       H6             18.3950356261        7.4856726132      -17.3930867604  IM1       163             0.0000000000
      9332       433  IM1       N2             18.3290917555        9.6289774297      -17.2011404039  IM1       163             0.0000000000
      9333       433  IM1       DN2            18.3366379720        9.6255659548      -17.2082378019  IM1       163             0.0000000000
      9334       433  IM1       H7             17.6263326541        9.7618169537      -16.5022245962  IM1       163             0.0000000000
      9335       433  IM1       LPN21          18.1208360391        9.6611029352      -16.9876046728  IM1       163             0.0000000000
      9336       434  IM1       C1             17.5739432860       15.1372314514        0.6868410382  IM1       164             0.0000000000
      9337       434  IM1       DC1            17.5584338893       15.1362334506        0.6767342031  IM1       164             0.0000000000
      9338       434  IM1       H1             17.3904082146       15.7398085641       -0.2283292747  IM1       164             0.0000000000
      9339       434  IM1       H2             17.4232956961       15.7708742473        1.5869094305  IM1       164             0.0000000000
      9340       434  IM1       H3             16.8764873764       14.2727789113        0.7112963537  IM1       164             0.0000000000
      9341       434  IM1       N1             18.9217171379       14.6609906331        0.6784168163  IM1       164             0.0000000000
      9342       434  IM1       DN1            18.9084319917       14.6532632778        0.6868179530  IM1       164             0.0000000000
      9343       434  IM1       C2             19.9678538849       15.2756648243        0.0410758614  IM1       164             0.0000000000
      9344       434  IM1       DC2            19.9301746316       15.2684862901        0.0510153800  IM1       164             0.0000000000
      9345       434  IM1       H4             19.8652485359       16.0836252748       -0.6727595909  IM1       164             0.0000000000
      9346       434  IM1       C3             21.0995996130       14.6656431570        0.4953973626  IM1       164             0.0000000000
      9347       434  IM1       DC3            21.0818468641       14.6601062207        0.4981720796  IM1       164             0.0000000000
      9348       434  IM1       H5             22.1339862201       14.8611266286        0.2409969710  IM1       164             0.0000000000
      9349       434  IM1       C4             19.4412641067       13.7075324860        1.4873016660  IM1       164             0.0000000000
      9350       434  IM1       DC4            19.4369591429       13.7171913745        1.4886511424  IM1       164             0.0000000000
      9351       434  IM1       H6             18.8333005758       13.0603558738        2.1194747259  IM1       164             0.0000000000
      9352       434  IM1       N2             20.7653334172       13.6708505950        1.3959322414  IM1       164             0.0000000000
      9353       434  IM1       DN2            20.7628697999       13.6623379222        1.3957994858  IM1       164             0.0000000000
      9354       434  IM1       H7             21.3917978689       13.0853165181        1.9104146371  IM1       164             0.0000000000
      9355       434  IM1       LPN21          20.9460579057       13.4824522271        1.5437318159  IM1       164             0.0000000000
      9356       435  IM1       C1             13.0514546703       -6.4197644694        4.1901702559  IM1       165             0.0000000000
      9357       435  IM1       DC1            13.0613156072       -6.4428728773        4.1947881359  IM1       165             0.0000000000
      9358       435  IM1       H1             13.1710334330       -7.5214158828        4.1102572786  IM1       165             0.0000000000
      9359       435  IM1       H2             13.5212407904       -6.0548827179        5.1285109773  IM1       165             0.0000000000
      9360       435  IM1       H3             13.5141828975       -5.9223088220        3.3111131095  IM1       165             0.0000000000
      9361       435  IM1       N1             11.6639418713       -6.0797483844        4.2227657704  IM1       165             0.0000000000
      9362       435  IM1       DN1            11.6724883068       -6.0825668494        4.2213354350  IM1       165             0.0000000000
      9363       435  IM1       C2             10.6102882540       -6.9610958898        4.3458783975  IM1       165             0.0000000000
      9364       435  IM1       DC2            10.6371467281       -6.9668907060        4.3401999447  IM1       165             0.0000000000
      9365       435  IM1       H4             10.7088946510       -8.0394137385        4.3259687065  IM1       165             0.0000000000
      9366       435  IM1       C3              9.4924531894       -6.1896657263        4.4599562737  IM1       165             0.0000000000
      9367       435  IM1       DC3             9.5051374794       -6.1966029644        4.4487842905  IM1       165             0.0000000000
      9368       435  IM1       H5              8.4512760052       -6.4759471796        4.5429140977  IM1       165             0.0000000000
      9369       435  IM1       C4             11.1627548957       -4.8206844094        4.2568849914  IM1       165             0.0000000000
      9370       435  IM1       DC4            11.1649536668       -4.8401968284        4.2562340987  IM1       165             0.0000000000
      9371       435  IM1       H6             11.7808762283       -3.9241455993        4.2095122126  IM1       165             0.0000000000
      9372       435  IM1       N2              9.8387415368       -4.8487445520        4.3882099510  IM1       165             0.0000000000
      9373       435  IM1       DN2             9.8377969874       -4.8534370824        4.3856543687  IM1       165             0.0000000000
      9374       435  IM1       H7              9.2256380440       -4.0604182817        4.4396472860  IM1       165             0.0000000000
      9375       435  IM1       LPN21           9.6597145852       -4.6082650446        4.3991166967  IM1       165             0.0000000000
      9376       436  IM1       C1            -26.2417018587      -11.1663486460      -27.6863488196  IM1       166             0.0000000000
      9377       436  IM1       DC1           -26.2564598314      -11.1791443197      -27.6814247850  IM1       166             0.0000000000
      9378       436  IM1       H1            -25.6234331104      -12.0421571604      -27.9779379187  IM1       166             0.0000000000
      9379       436  IM1       H2            -25.5852043214      -10.3905080438      -27.2375689797  IM1       166             0.0000000000
      9380       436  IM1       H3            -26.7588966162      -10.7547127077      -28.5793137893  IM1       166             0.0000000000
      9381       436  IM1       N1            -27.2214339138      -11.5563079972      -26.7240115212  IM1       166             0.0000000000
      9382       436  IM1       DN1           -27.2319264699      -11.5494957064      -26.7168357512  IM1       166             0.0000000000
      9383       436  IM1       C2            -27.2983297838      -12.7733687846      -26.0808846348  IM1       166             0.0000000000
      9384       436  IM1       DC2           -27.2935515773      -12.7538037962      -26.0926028401  IM1       166             0.0000000000
      9385       436  IM1       H4            -26.6889391769      -13.6351942760      -26.3233488805  IM1       166             0.0000000000
      9386       436  IM1       C3            -28.2770718669      -12.6409327491      -25.1467195908  IM1       166             0.0000000000
      9387       436  IM1       DC3           -28.2832288155      -12.6372080421      -25.1510386518  IM1       166             0.0000000000
      9388       436  IM1       H5            -28.6734775201      -13.3570994914      -24.4375956556  IM1       166             0.0000000000
      9389       436  IM1       C4            -28.1431300168      -10.7354087769      -26.1703319356  IM1       166             0.0000000000
      9390       436  IM1       DC4           -28.1325559301      -10.7360309714      -26.1741096793  IM1       166             0.0000000000
      9391       436  IM1       H6            -28.3052070404       -9.7026660621      -26.4789960307  IM1       166             0.0000000000
      9392       436  IM1       N2            -28.8004943191      -11.3624541448      -25.2033751871  IM1       166             0.0000000000
      9393       436  IM1       DN2           -28.8051359714      -11.3667594460      -25.2058647960  IM1       166             0.0000000000
      9394       436  IM1       H7            -29.5355799954      -10.9834043500      -24.6412628295  IM1       166             0.0000000000
      9395       436  IM1       LPN21         -29.0182070397      -11.2422954201      -25.0355566776  IM1       166             0.0000000000
      9396       437  IM1       C1             -5.8256825989      -20.0171556099       25.8656115918  IM1       167             0.0000000000
      9397       437  IM1       DC1            -5.8262442917      -20.0079948983       25.8694773536  IM1       167             0.0000000000
      9398       437  IM1       H1             -6.6256510951      -19.2485432931       25.8055573482  IM1       167             0.0000000000
      9399       437  IM1       H2             -5.2149853401      -20.0027354530       24.9376234900  IM1       167             0.0000000000
      9400       437  IM1       H3             -5.1803226562      -19.8223335145       26.7487174161  IM1       167             0.0000000000
      9401       437  IM1       N1             -6.4067315045      -21.3144258671       26.0098910199  IM1       167             0.0000000000
      9402       437  IM1       DN1            -6.3928150817      -21.3149040235       26.0152310023  IM1       167             0.0000000000
      9403       437  IM1       C2             -7.7439815435      -21.6415090454       25.9503242662  IM1       167             0.0000000000
      9404       437  IM1       DC2            -7.7246762044      -21.6149540439       25.9531667454  IM1       167             0.0000000000
      9405       437  IM1       H4             -8.5238168464      -20.9234000852       25.7288171068  IM1       167             0.0000000000
      9406       437  IM1       C3             -7.8081349936      -22.9880305890       26.1645289448  IM1       167             0.0000000000
      9407       437  IM1       DC3            -7.8091499658      -22.9537002772       26.1689315869  IM1       167             0.0000000000
      9408       437  IM1       H5             -8.6590437443      -23.6579021614       26.1537876940  IM1       167             0.0000000000
      9409       437  IM1       C4             -5.7120448590      -22.4459317851       26.2617100133  IM1       167             0.0000000000
      9410       437  IM1       DC4            -5.7052462413      -22.4346557120       26.2741589692  IM1       167             0.0000000000
      9411       437  IM1       H6             -4.6232763173      -22.4975367058       26.2572384645  IM1       167             0.0000000000
      9412       437  IM1       N2             -6.5291440569      -23.4790663711       26.3977665051  IM1       167             0.0000000000
      9413       437  IM1       DN2            -6.5157660696      -23.4663235272       26.4165238482  IM1       167             0.0000000000
      9414       437  IM1       H7             -6.2735089157      -24.4410671441       26.4937101731  IM1       167             0.0000000000
      9415       437  IM1       LPN21          -6.4443368558      -23.7587364143       26.4655337949  IM1       167             0.0000000000
      9416       438  IM1       C1             -6.2333051865       -9.1364310867      -10.2161711046  IM1       168             0.0000000000
      9417       438  IM1       DC1            -6.2258499663       -9.1370883884      -10.2146124303  IM1       168             0.0000000000
      9418       438  IM1       H1             -6.8838161630      -10.0082811465      -10.4420780384  IM1       168             0.0000000000
      9419       438  IM1       H2             -6.1285431497       -9.0332026039       -9.1149491481  IM1       168             0.0000000000
      9420       438  IM1       H3             -5.2368816692       -9.2935947593      -10.6817468286  IM1       168             0.0000000000
      9421       438  IM1       N1             -6.8216458476       -7.9361910349      -10.7447902842  IM1       168             0.0000000000
      9422       438  IM1       DN1            -6.8020058710       -7.9339635292      -10.7411471338  IM1       168             0.0000000000
      9423       438  IM1       C2             -8.1170531172       -7.7933545586      -11.1905743132  IM1       168             0.0000000000
      9424       438  IM1       DC2            -8.0773415513       -7.8160808495      -11.1906463961  IM1       168             0.0000000000
      9425       438  IM1       H4             -8.8409539493       -8.5977572433      -11.2329170369  IM1       168             0.0000000000
      9426       438  IM1       C3             -8.2739208560       -6.4750130657      -11.4930975752  IM1       168             0.0000000000
      9427       438  IM1       DC3            -8.2559246101       -6.4915955542      -11.4906003873  IM1       168             0.0000000000
      9428       438  IM1       H5             -9.1451501314       -5.9468019180      -11.8603053277  IM1       168             0.0000000000
      9429       438  IM1       C4             -6.2375131455       -6.7139642246      -10.7880228696  IM1       168             0.0000000000
      9430       438  IM1       DC4            -6.2319994710       -6.7257124715      -10.7765188819  IM1       168             0.0000000000
      9431       438  IM1       H6             -5.2016733286       -6.5282936426      -10.5040117619  IM1       168             0.0000000000
      9432       438  IM1       N2             -7.0895665343       -5.7997766526      -11.2435727478  IM1       168             0.0000000000
      9433       438  IM1       DN2            -7.0863149620       -5.8041667311      -11.2406423963  IM1       168             0.0000000000
      9434       438  IM1       H7             -6.9124985140       -4.8236138528      -11.3690841195  IM1       168             0.0000000000
      9435       438  IM1       LPN21          -7.0286124543       -5.5084692299      -11.2813164309  IM1       168             0.0000000000
      9436       439  IM1       C1             12.1986888612       17.8823341757       25.3653611182  IM1       169             0.0000000000
      9437       439  IM1       DC1            12.2138823888       17.9020469864       25.4086309540  IM1       169             0.0000000000
      9438       439  IM1       H1             11.3627926572       18.6089359615       25.2779060906  IM1       169             0.0000000000
      9439       439  IM1       H2             11.7858571778       16.8508852537       25.3633307037  IM1       169             0.0000000000
      9440       439  IM1       H3             12.8889013341       18.0163565935       24.5051485076  IM1       169             0.0000000000
      9441       439  IM1       N1             12.9080272514       18.1078411806       26.5806844653  IM1       169             0.0000000000
      9442       439  IM1       DN1            12.9073616502       18.1288136881       26.6235893531  IM1       169             0.0000000000
      9443       439  IM1       C2             12.5024366740       18.9805429025       27.5649345889  IM1       169             0.0000000000
      9444       439  IM1       DC2            12.4944335533       18.9871897524       27.5903830614  IM1       169             0.0000000000
      9445       439  IM1       H4             11.6477603438       19.6373170984       27.4597441608  IM1       169             0.0000000000
      9446       439  IM1       C3             13.3623820287       18.8054293572       28.5933695018  IM1       169             0.0000000000
      9447       439  IM1       DC3            13.3686771663       18.8231342303       28.6314987647  IM1       169             0.0000000000
      9448       439  IM1       H5             13.3631769420       19.2829747820       29.5653976575  IM1       169             0.0000000000
      9449       439  IM1       C4             13.9982671277       17.4384393858       27.0372454527  IM1       169             0.0000000000
      9450       439  IM1       DC4            13.9750651094       17.4539483738       27.0418643246  IM1       169             0.0000000000
      9451       439  IM1       H6             14.5102121864       16.6584747531       26.4736255199  IM1       169             0.0000000000
      9452       439  IM1       N2             14.3062439423       17.8532006331       28.2697783625  IM1       169             0.0000000000
      9453       439  IM1       DN2            14.2938392528       17.8752196934       28.2781098417  IM1       169             0.0000000000
      9454       439  IM1       H7             15.0489339509       17.5059290673       28.8423288063  IM1       169             0.0000000000
      9455       439  IM1       LPN21          14.5355708393       17.7547144069       28.4362404830  IM1       169             0.0000000000
      9456       440  IM1       C1            -22.3464897798       21.1777644535        8.6602859780  IM1       170             0.0000000000
      9457       440  IM1       DC1           -22.3718088208       21.2159709781        8.6803237609  IM1       170             0.0000000000
      9458       440  IM1       H1            -21.9054871051       21.3712388225        9.6614879106  IM1       170             0.0000000000
      9459       440  IM1       H2            -23.0249463410       20.2995619959        8.7129940234  IM1       170             0.0000000000
      9460       440  IM1       H3            -22.8897431311       22.0752657902        8.2946520790  IM1       170             0.0000000000
      9461       440  IM1       N1            -21.3086981100       20.8701464788        7.7304266555  IM1       170             0.0000000000
      9462       440  IM1       DN1           -21.3500379620       20.8898384134        7.7263115668  IM1       170             0.0000000000
      9463       440  IM1       C2            -19.9536261122       20.9161209364        7.9534469895  IM1       170             0.0000000000
      9464       440  IM1       DC2           -20.0119623016       20.9580904810        7.9724357184  IM1       170             0.0000000000
      9465       440  IM1       H4            -19.4950489844       20.9790265432        8.9325480580  IM1       170             0.0000000000
      9466       440  IM1       C3            -19.3709774150       20.6721594501        6.7409211128  IM1       170             0.0000000000
      9467       440  IM1       DC3           -19.3985714259       20.7410004221        6.7525206824  IM1       170             0.0000000000
      9468       440  IM1       H5            -18.3278715066       20.5246362581        6.4898116311  IM1       170             0.0000000000
      9469       440  IM1       C4            -21.5056556357       20.6449199770        6.4114384082  IM1       170             0.0000000000
      9470       440  IM1       DC4           -21.5211594607       20.6722925019        6.4136406254  IM1       170             0.0000000000
      9471       440  IM1       H6            -22.4942423831       20.5078924122        5.9732378953  IM1       170             0.0000000000
      9472       440  IM1       N2            -20.3543820362       20.5945477445        5.7586907586  IM1       170             0.0000000000
      9473       440  IM1       DN2           -20.3713839279       20.6250506686        5.7499070257  IM1       170             0.0000000000
      9474       440  IM1       H7            -20.2208746180       20.3573623625        4.7964439795  IM1       170             0.0000000000
      9475       440  IM1       LPN21         -20.3238856230       20.5712569929        5.4611550302  IM1       170             0.0000000000
      9476       441  IM1       C1             23.7661162241       11.2326715657       17.3431711442  IM1       171             0.0000000000
      9477       441  IM1       DC1            23.7402519378       11.2618522655       17.3372821143  IM1       171             0.0000000000
      9478       441  IM1       H1             24.2919248178       11.3583103566       16.3725727622  IM1       171             0.0000000000
      9479       441  IM1       H2             24.1247325420       10.2987280767       17.8263531973  IM1       171             0.0000000000
      9480       441  IM1       H3             23.9984962011       12.0761544211       18.0279026382  IM1       171             0.0000000000
      9481       441  IM1       N1             22.3483315279       11.1795373354       17.1278941804  IM1       171             0.0000000000
      9482       441  IM1       DN1            22.3147577707       11.2081848346       17.1341313749  IM1       171             0.0000000000
      9483       441  IM1       C2             21.6834439828       11.6856374814       16.0305978893  IM1       171             0.0000000000
      9484       441  IM1       DC2            21.6692821331       11.7117243889       16.0408907064  IM1       171             0.0000000000
      9485       441  IM1       H4             22.1776478898       11.8880700613       15.0884341301  IM1       171             0.0000000000
      9486       441  IM1       C3             20.3733246550       11.7779442252       16.3903401199  IM1       171             0.0000000000
      9487       441  IM1       DC3            20.3542167721       11.7946093276       16.3987887231  IM1       171             0.0000000000
      9488       441  IM1       H5             19.5138178041       12.0920406499       15.8111334132  IM1       171             0.0000000000
      9489       441  IM1       C4             21.4354386403       11.0008227483       18.1113038757  IM1       171             0.0000000000
      9490       441  IM1       DC4            21.4305162917       11.0279883739       18.1215954692  IM1       171             0.0000000000
      9491       441  IM1       H6             21.6884723209       10.5944017961       19.0905362108  IM1       171             0.0000000000
      9492       441  IM1       N2             20.2210602565       11.3875017310       17.7100012559  IM1       171             0.0000000000
      9493       441  IM1       DN2            20.2167227615       11.4124027270       17.7251170721  IM1       171             0.0000000000
      9494       441  IM1       H7             19.3694038666       11.3340421819       18.2313681820  IM1       171             0.0000000000
      9495       441  IM1       LPN21          19.9720855869       11.3867972218       17.8773664780  IM1       171             0.0000000000
      9496       442  IM1       C1             17.9366354045      -15.3414341614       21.7399117256  IM1       172             0.0000000000
      9497       442  IM1       DC1            17.9422047983      -15.3648706964       21.7147401307  IM1       172             0.0000000000
      9498       442  IM1       H1             17.3365385042      -16.2269876446       22.0399112901  IM1       172             0.0000000000
      9499       442  IM1       H2             17.3980878486      -14.7855216067       20.9428867799  IM1       172             0.0000000000
      9500       442  IM1       H3             18.0875290947      -14.6719333725       22.6135940412  IM1       172             0.0000000000
      9501       442  IM1       N1             19.2212314795      -15.7637272805       21.2552020823  IM1       172             0.0000000000
      9502       442  IM1       DN1            19.2303153313      -15.7588854132       21.2340331747  IM1       172             0.0000000000
      9503       442  IM1       C2             19.7712667310      -17.0281234281       21.3173442074  IM1       172             0.0000000000
      9504       442  IM1       DC2            19.7740938494      -16.9922774027       21.2939776519  IM1       172             0.0000000000
      9505       442  IM1       H4             19.2648771964      -17.8976409684       21.7178412566  IM1       172             0.0000000000
      9506       442  IM1       C3             21.0443645956      -16.9122804599       20.8483601983  IM1       172             0.0000000000
      9507       442  IM1       DC3            21.0652681638      -16.8989976537       20.8297248979  IM1       172             0.0000000000
      9508       442  IM1       H5             21.8160806647      -17.6658775801       20.7512278694  IM1       172             0.0000000000
      9509       442  IM1       C4             20.1465132627      -14.9468800684       20.7082743145  IM1       172             0.0000000000
      9510       442  IM1       DC4            20.1461991535      -14.9510447929       20.6964496974  IM1       172             0.0000000000
      9511       442  IM1       H6             19.9708473643      -13.8825654131       20.5518268580  IM1       172             0.0000000000
      9512       442  IM1       N2             21.2686728098      -15.6121152707       20.4262909463  IM1       172             0.0000000000
      9513       442  IM1       DN2            21.2790820275      -15.6073437543       20.4064560962  IM1       172             0.0000000000
      9514       442  IM1       H7             22.1131722891      -15.2259775466       20.0551867999  IM1       172             0.0000000000
      9515       442  IM1       LPN21          21.5139441743      -15.4963991852       20.2980265891  IM1       172             0.0000000000
      9516       443  IM1       C1             24.3857152429      -20.7872819049      -15.9934116978  IM1       173             0.0000000000
      9517       443  IM1       DC1            24.4007119162      -20.7883484377      -15.9763555196  IM1       173             0.0000000000
      9518       443  IM1       H1             25.3025312098      -21.4059772450      -15.8885996789  IM1       173             0.0000000000
      9519       443  IM1       H2             24.6609660606      -19.7136498053      -16.0700413400  IM1       173             0.0000000000
      9520       443  IM1       H3             23.8292672571      -21.0864037533      -16.9073114517  IM1       173             0.0000000000
      9521       443  IM1       N1             23.5343273352      -20.9724215663      -14.8610809494  IM1       173             0.0000000000
      9522       443  IM1       DN1            23.5413093654      -20.9692202260      -14.8568054547  IM1       173             0.0000000000
      9523       443  IM1       C2             23.8557982550      -21.6242734737      -13.6881789049  IM1       173             0.0000000000
      9524       443  IM1       DC2            23.8743711624      -21.6176000438      -13.7063830746  IM1       173             0.0000000000
      9525       443  IM1       H4             24.7712080230      -22.1805759243      -13.5286748565  IM1       173             0.0000000000
      9526       443  IM1       C3             22.8149800198      -21.3988384188      -12.8390418506  IM1       173             0.0000000000
      9527       443  IM1       DC3            22.8312103057      -21.4056167688      -12.8418063224  IM1       173             0.0000000000
      9528       443  IM1       H5             22.6657052242      -21.7102422158      -11.8125752361  IM1       173             0.0000000000
      9529       443  IM1       C4             22.3312796086      -20.3785723428      -14.6888335523  IM1       173             0.0000000000
      9530       443  IM1       DC4            22.3612482650      -20.3857333631      -14.6837981573  IM1       173             0.0000000000
      9531       443  IM1       H6             21.8545178495      -19.7537404927      -15.4440708556  IM1       173             0.0000000000
      9532       443  IM1       N2             21.8628364187      -20.6200555737      -13.4659992608  IM1       173             0.0000000000
      9533       443  IM1       DN2            21.8800399095      -20.6256281314      -13.4640696716  IM1       173             0.0000000000
      9534       443  IM1       H7             21.0103548222      -20.2716419765      -13.0762774459  IM1       173             0.0000000000
      9535       443  IM1       LPN21          21.6016108450      -20.5212336132      -13.3564756570  IM1       173             0.0000000000
      9536       444  IM1       C1             -7.1592836400      -17.9070688499       19.0956229960  IM1       174             0.0000000000
      9537       444  IM1       DC1            -7.1561879239      -17.8869909489       19.0997132553  IM1       174             0.0000000000
      9538       444  IM1       H1             -6.3566494525      -17.8810301065       19.8633608076  IM1       174             0.0000000000
      9539       444  IM1       H2             -6.7785839902      -17.4850587916       18.1410045971  IM1       174             0.0000000000
      9540       444  IM1       H3             -7.4902357369      -18.9566969452       18.9437264169  IM1       174             0.0000000000
      9541       444  IM1       N1             -8.2814648534      -17.1325127351       19.5276628411  IM1       174             0.0000000000
      9542       444  IM1       DN1            -8.2932634568      -17.1203122879       19.5098777526  IM1       174             0.0000000000
      9543       444  IM1       C2             -8.3713028868      -16.3894460040       20.6814910743  IM1       174             0.0000000000
      9544       444  IM1       DC2            -8.3384688524      -16.4100425252       20.6680227024  IM1       174             0.0000000000
      9545       444  IM1       H4             -7.6237397370      -16.3806602935       21.4650478048  IM1       174             0.0000000000
      9546       444  IM1       C3             -9.5751864378      -15.7524280228       20.6205498778  IM1       174             0.0000000000
      9547       444  IM1       DC3            -9.5483229389      -15.7592115204       20.5967345554  IM1       174             0.0000000000
      9548       444  IM1       H5            -10.0535618405      -15.0988279367       21.3394747011  IM1       174             0.0000000000
      9549       444  IM1       C4             -9.4153140357      -16.9339049007       18.8165840602  IM1       174             0.0000000000
      9550       444  IM1       DC4            -9.4117805744      -16.9292760776       18.7941820658  IM1       174             0.0000000000
      9551       444  IM1       H6             -9.6186012499      -17.4265338416       17.8657470420  IM1       174             0.0000000000
      9552       444  IM1       N2            -10.2240245194      -16.0860898154       19.4381952270  IM1       174             0.0000000000
      9553       444  IM1       DN2           -10.2270501910      -16.0856135029       19.4250616343  IM1       174             0.0000000000
      9554       444  IM1       H7            -11.1306926518      -15.7851577342       19.1425725280  IM1       174             0.0000000000
      9555       444  IM1       LPN21         -10.4899698805      -15.9923043016       19.3358363375  IM1       174             0.0000000000
      9556       445  IM1       C1             13.5236897801       13.1406918220      -18.7490288245  IM1       175             0.0000000000
      9557       445  IM1       DC1            13.5415394092       13.1315972055      -18.7458470436  IM1       175             0.0000000000
      9558       445  IM1       H1             12.8560546252       12.4050973915      -19.2465076036  IM1       175             0.0000000000
      9559       445  IM1       H2             14.2453030407       13.5526594471      -19.4865096573  IM1       175             0.0000000000
      9560       445  IM1       H3             12.9001077782       13.9419569631      -18.2979848573  IM1       175             0.0000000000
      9561       445  IM1       N1             14.2778835693       12.5186543934      -17.7200084346  IM1       175             0.0000000000
      9562       445  IM1       DN1            14.3000125630       12.5215467903      -17.7041514892  IM1       175             0.0000000000
      9563       445  IM1       C2             14.3949278093       11.1662120816      -17.5139804687  IM1       175             0.0000000000
      9564       445  IM1       DC2            14.3837691309       11.1728742060      -17.5364416329  IM1       175             0.0000000000
      9565       445  IM1       H4             13.8041779931       10.4258510328      -18.0391177576  IM1       175             0.0000000000
      9566       445  IM1       C3             15.3405334469       11.0161668101      -16.5484565668  IM1       175             0.0000000000
      9567       445  IM1       DC3            15.3186015627       11.0311320951      -16.5490912770  IM1       175             0.0000000000
      9568       445  IM1       H5             15.7167485796       10.1116961939      -16.0866296745  IM1       175             0.0000000000
      9569       445  IM1       C4             15.1469347899       13.1437846383      -16.8936487375  IM1       175             0.0000000000
      9570       445  IM1       DC4            15.1535074891       13.1571591386      -16.8917632990  IM1       175             0.0000000000
      9571       445  IM1       H6             15.2619954564       14.2267663092      -16.8487962739  IM1       175             0.0000000000
      9572       445  IM1       N2             15.8077877903       12.2612738795      -16.1570710562  IM1       175             0.0000000000
      9573       445  IM1       DN2            15.8071983733       12.2689263946      -16.1506169338  IM1       175             0.0000000000
      9574       445  IM1       H7             16.4915792886       12.4504411009      -15.4523406473  IM1       175             0.0000000000
      9575       445  IM1       LPN21          16.0146506686       12.3278167912      -15.9502382965  IM1       175             0.0000000000
      9576       446  IM1       C1             14.7207485150       11.6275704384      -28.1365735857  IM1       176             0.0000000000
      9577       446  IM1       DC1            14.7169856807       11.6158956034      -28.1346228333  IM1       176             0.0000000000
      9578       446  IM1       H1             15.6051252864       10.9583672844      -28.2026482773  IM1       176             0.0000000000
      9579       446  IM1       H2             13.8696089768       11.1591928899      -28.6755587066  IM1       176             0.0000000000
      9580       446  IM1       H3             14.4650832240       11.8152006407      -27.0717960658  IM1       176             0.0000000000
      9581       446  IM1       N1             15.0313491886       12.8716756877      -28.7548866371  IM1       176             0.0000000000
      9582       446  IM1       DN1            15.0081322446       12.8687112576      -28.7501979892  IM1       176             0.0000000000
      9583       446  IM1       C2             16.2835154377       13.4172610148      -28.9130771316  IM1       176             0.0000000000
      9584       446  IM1       DC2            16.2477301550       13.3984121895      -28.9023412316  IM1       176             0.0000000000
      9585       446  IM1       H4             17.2158341683       12.8965061620      -28.7328407096  IM1       176             0.0000000000
      9586       446  IM1       C3             16.0847358124       14.6696144263      -29.4029989636  IM1       176             0.0000000000
      9587       446  IM1       DC3            16.0581957748       14.6730792178      -29.3667942245  IM1       176             0.0000000000
      9588       446  IM1       H5             16.8076028384       15.4194494194      -29.6998149773  IM1       176             0.0000000000
      9589       446  IM1       C4             14.1217881221       13.8018068251      -29.1260612527  IM1       176             0.0000000000
      9590       446  IM1       DC4            14.1201293407       13.8017572669      -29.1057053358  IM1       176             0.0000000000
      9591       446  IM1       H6             13.0445444140       13.6383682112      -29.0955029020  IM1       176             0.0000000000
      9592       446  IM1       N2             14.7249998494       14.9158185613      -29.5190732284  IM1       176             0.0000000000
      9593       446  IM1       DN2            14.7125834063       14.9245081903      -29.5016682492  IM1       176             0.0000000000
      9594       446  IM1       H7             14.2904641052       15.7500918230      -29.8584355890  IM1       176             0.0000000000
      9595       446  IM1       LPN21          14.5863607660       15.1649824297      -29.6123286371  IM1       176             0.0000000000
      9596       447  IM1       C1             26.1557935695      -17.9656360864        1.2394551406  IM1       177             0.0000000000
      9597       447  IM1       DC1            26.1413733299      -17.9628406899        1.2379126787  IM1       177             0.0000000000
      9598       447  IM1       H1             25.2397497787      -17.3531966876        1.0976709464  IM1       177             0.0000000000
      9599       447  IM1       H2             25.9781351227      -18.7054525885        2.0490414667  IM1       177             0.0000000000
      9600       447  IM1       H3             26.4199650877      -18.4919004212        0.2973403603  IM1       177             0.0000000000
      9601       447  IM1       N1             27.2485904166      -17.1343003424        1.6142998840  IM1       177             0.0000000000
      9602       447  IM1       DN1            27.2427811417      -17.1461392658        1.6101251003  IM1       177             0.0000000000
      9603       447  IM1       C2             27.2692856811      -15.7589870642        1.6828607060  IM1       177             0.0000000000
      9604       447  IM1       DC2            27.2434873917      -15.7844712735        1.6808633510  IM1       177             0.0000000000
      9605       447  IM1       H4             26.4464908626      -15.1090120014        1.4118808095  IM1       177             0.0000000000
      9606       447  IM1       C3             28.5100218675      -15.4260298028        2.1301455544  IM1       177             0.0000000000
      9607       447  IM1       DC3            28.4864383109      -15.4397819422        2.1227719002  IM1       177             0.0000000000
      9608       447  IM1       H5             28.9332967981      -14.4517561055        2.3411386726  IM1       177             0.0000000000
      9609       447  IM1       C4             28.4584625966      -17.5882499172        2.0106987853  IM1       177             0.0000000000
      9610       447  IM1       DC4            28.4355275210      -17.5864097590        2.0042562372  IM1       177             0.0000000000
      9611       447  IM1       H6             28.7224780527      -18.6451397205        2.0478442091  IM1       177             0.0000000000
      9612       447  IM1       N2             29.2501785473      -16.5758578445        2.3412979719  IM1       177             0.0000000000
      9613       447  IM1       DN2            29.2352887490      -16.5765095715        2.3405282216  IM1       177             0.0000000000
      9614       447  IM1       H7             30.1899969974      -16.6381572286        2.6772444995  IM1       177             0.0000000000
      9615       447  IM1       LPN21          29.5320026337      -16.6011948586        2.4409635129  IM1       177             0.0000000000
      9616       448  IM1       C1             24.5634902896       -3.2116015663      -20.2290513917  IM1       178             0.0000000000
      9617       448  IM1       DC1            24.5327505622       -3.2083826192      -20.2377025207  IM1       178             0.0000000000
      9618       448  IM1       H1             24.3849901670       -3.9201223579      -21.0659844812  IM1       178             0.0000000000
      9619       448  IM1       H2             24.8970833606       -2.2316298104      -20.6324023824  IM1       178             0.0000000000
      9620       448  IM1       H3             23.6337506161       -3.0878532868      -19.6335755292  IM1       178             0.0000000000
      9621       448  IM1       N1             25.5872901589       -3.7232907679      -19.3719003145  IM1       178             0.0000000000
      9622       448  IM1       DN1            25.5628677691       -3.6930095596      -19.3683383851  IM1       178             0.0000000000
      9623       448  IM1       C2             26.2671563353       -4.9151391092      -19.4985189265  IM1       178             0.0000000000
      9624       448  IM1       DC2            26.2304862913       -4.8618901845      -19.4997502695  IM1       178             0.0000000000
      9625       448  IM1       H4             26.1346769906       -5.6288862828      -20.3021999551  IM1       178             0.0000000000
      9626       448  IM1       C3             27.0747035200       -5.0063523708      -18.4010995706  IM1       178             0.0000000000
      9627       448  IM1       DC3            27.0599344387       -4.9822948305      -18.4151853090  IM1       178             0.0000000000
      9628       448  IM1       H5             27.7499879485       -5.7986459031      -18.1025180919  IM1       178             0.0000000000
      9629       448  IM1       C4             25.9991806105       -3.1316196856      -18.2257024803  IM1       178             0.0000000000
      9630       448  IM1       DC4            25.9855661473       -3.1301568438      -18.2249675311  IM1       178             0.0000000000
      9631       448  IM1       H6             25.6127926724       -2.1763719205      -17.8703068294  IM1       178             0.0000000000
      9632       448  IM1       N2             26.9068275091       -3.8769111736      -17.6072930819  IM1       178             0.0000000000
      9633       448  IM1       DN2            26.9003103781       -3.8643787996      -17.6056812242  IM1       178             0.0000000000
      9634       448  IM1       H7             27.3509585197       -3.6815000042      -16.7329006527  IM1       178             0.0000000000
      9635       448  IM1       LPN21          27.0421347350       -3.8065897427      -17.3489389626  IM1       178             0.0000000000
      9636       449  IM1       C1             25.6637032358       -5.1322392245        6.6718940524  IM1       179             0.0000000000
      9637       449  IM1       DC1            25.6641435914       -5.1786328360        6.6545158090  IM1       179             0.0000000000
      9638       449  IM1       H1             24.9074166452       -5.8983771041        6.9464561459  IM1       179             0.0000000000
      9639       449  IM1       H2             26.5672910975       -5.5940142214        6.2195514516  IM1       179             0.0000000000
      9640       449  IM1       H3             25.2015030803       -4.3833338958        5.9937843070  IM1       179             0.0000000000
      9641       449  IM1       N1             26.0487345503       -4.3832540234        7.7974227251  IM1       179             0.0000000000
      9642       449  IM1       DN1            26.0640922665       -4.3980906548        7.7590008962  IM1       179             0.0000000000
      9643       449  IM1       C2             25.4476029770       -4.4377297839        9.0227440928  IM1       179             0.0000000000
      9644       449  IM1       DC2            25.4737681777       -4.4914093485        8.9782188826  IM1       179             0.0000000000
      9645       449  IM1       H4             24.6403162285       -5.1122289599        9.2800920428  IM1       179             0.0000000000
      9646       449  IM1       C3             25.9927674592       -3.4242462047        9.7525494995  IM1       179             0.0000000000
      9647       449  IM1       DC3            25.9717687667       -3.4433196889        9.7130521440  IM1       179             0.0000000000
      9648       449  IM1       H5             25.7968034089       -3.1218531818       10.7738455147  IM1       179             0.0000000000
      9649       449  IM1       C4             26.9138601369       -3.3430426301        7.7992646653  IM1       179             0.0000000000
      9650       449  IM1       DC4            26.9050434718       -3.3573425175        7.7890254682  IM1       179             0.0000000000
      9651       449  IM1       H6             27.5110272811       -3.0464779971        6.9369765346  IM1       179             0.0000000000
      9652       449  IM1       N2             26.9109825133       -2.7379302947        8.9766115301  IM1       179             0.0000000000
      9653       449  IM1       DN2            26.9051630542       -2.7349553743        8.9625602578  IM1       179             0.0000000000
      9654       449  IM1       H7             27.4612513022       -1.9497483881        9.2522445145  IM1       179             0.0000000000
      9655       449  IM1       LPN21          27.0791588177       -2.5006838322        9.0503058087  IM1       179             0.0000000000
      9656       450  IM1       C1             22.2364479071       -5.6886449146      -12.6163186723  IM1       180             0.0000000000
      9657       450  IM1       DC1            22.2123834003       -5.6735629125      -12.6051014623  IM1       180             0.0000000000
      9658       450  IM1       H1             21.5444231218       -5.1206677691      -13.2742127825  IM1       180             0.0000000000
      9659       450  IM1       H2             21.8349783155       -5.7180461697      -11.5808097473  IM1       180             0.0000000000
      9660       450  IM1       H3             22.3506668140       -6.7176474146      -13.0193433566  IM1       180             0.0000000000
      9661       450  IM1       N1             23.5253258989       -5.0609007988      -12.6056716485  IM1       180             0.0000000000
      9662       450  IM1       DN1            23.5149856345       -5.0731978257      -12.5832855750  IM1       180             0.0000000000
      9663       450  IM1       C2             23.8698647186       -3.9265657463      -13.2993235244  IM1       180             0.0000000000
      9664       450  IM1       DC2            23.8360720849       -3.9390604735      -13.2648125976  IM1       180             0.0000000000
      9665       450  IM1       H4             23.2057461945       -3.4068930480      -13.9788644521  IM1       180             0.0000000000
      9666       450  IM1       C3             25.2101832006       -3.7651071989      -13.1121102016  IM1       180             0.0000000000
      9667       450  IM1       DC3            25.1851112161       -3.7575362658      -13.0947944286  IM1       180             0.0000000000
      9668       450  IM1       H5             25.8918013398       -3.0580012666      -13.5684948121  IM1       180             0.0000000000
      9669       450  IM1       C4             24.6475697366       -5.5302773598      -12.0062000525  IM1       180             0.0000000000
      9670       450  IM1       DC4            24.6288209795       -5.5265801183      -12.0008106619  IM1       180             0.0000000000
      9671       450  IM1       H6             24.6865031730       -6.4560733354      -11.4321913426  IM1       180             0.0000000000
      9672       450  IM1       N2             25.6849176533       -4.7403603649      -12.2560352260  IM1       180             0.0000000000
      9673       450  IM1       DN2            25.6729120001       -4.7352646390      -12.2464472457  IM1       180             0.0000000000
      9674       450  IM1       H7             26.6344187708       -4.8837515870      -11.9769535441  IM1       180             0.0000000000
      9675       450  IM1       LPN21          25.9615708600       -4.7743143341      -12.1450841955  IM1       180             0.0000000000
      9676       451  IM1       C1             23.4716794902       -7.9144784728       -0.4195538501  IM1       181             0.0000000000
      9677       451  IM1       DC1            23.4751165350       -7.9208408933       -0.4786525333  IM1       181             0.0000000000
      9678       451  IM1       H1             24.5347313509       -8.2054925613       -0.2797234442  IM1       181             0.0000000000
      9679       451  IM1       H2             22.8126326671       -8.8021426115       -0.3098694759  IM1       181             0.0000000000
      9680       451  IM1       H3             23.2076187108       -7.1732278463        0.3647550271  IM1       181             0.0000000000
      9681       451  IM1       N1             23.2807769198       -7.3140980556       -1.7121031624  IM1       181             0.0000000000
      9682       451  IM1       DN1            23.2557576791       -7.3119623176       -1.7500842671  IM1       181             0.0000000000
      9683       451  IM1       C2             24.2449369792       -7.0907887018       -2.6755984368  IM1       181             0.0000000000
      9684       451  IM1       DC2            24.2184460973       -7.1077147196       -2.6859792218  IM1       181             0.0000000000
      9685       451  IM1       H4             25.2973172420       -7.2911619440       -2.5167420672  IM1       181             0.0000000000
      9686       451  IM1       C3             23.6170232274       -6.4392607632       -3.6934020084  IM1       181             0.0000000000
      9687       451  IM1       DC3            23.5909060298       -6.4366112466       -3.6991128963  IM1       181             0.0000000000
      9688       451  IM1       H5             24.0329689707       -6.0240428302       -4.6030570017  IM1       181             0.0000000000
      9689       451  IM1       C4             22.1109855498       -6.8108997785       -2.1766495056  IM1       181             0.0000000000
      9690       451  IM1       DC4            22.0991113755       -6.8074781202       -2.1906066726  IM1       181             0.0000000000
      9691       451  IM1       H6             21.1883576268       -6.8363241933       -1.5968121859  IM1       181             0.0000000000
      9692       451  IM1       N2             22.2666368575       -6.2833233328       -3.3919345374  IM1       181             0.0000000000
      9693       451  IM1       DN2            22.2367217186       -6.2770830244       -3.4054221338  IM1       181             0.0000000000
      9694       451  IM1       H7             21.5760912146       -5.8163771564       -3.9443003431  IM1       181             0.0000000000
      9695       451  IM1       LPN21          22.0496621129       -6.1592208036       -3.5578276428  IM1       181             0.0000000000
      9696       452  IM1       C1            -23.1552756174       -6.5287664204      -21.9965352056  IM1       182             0.0000000000
      9697       452  IM1       DC1           -23.1645686438       -6.5547952017      -21.9898774685  IM1       182             0.0000000000
      9698       452  IM1       H1            -22.8714802235       -7.3916286528      -22.6362616660  IM1       182             0.0000000000
      9699       452  IM1       H2            -24.2633705265       -6.4598275877      -21.9553756329  IM1       182             0.0000000000
      9700       452  IM1       H3            -22.7209593623       -6.6459171945      -20.9806778895  IM1       182             0.0000000000
      9701       452  IM1       N1            -22.6478603543       -5.3291745451      -22.5715306482  IM1       182             0.0000000000
      9702       452  IM1       DN1           -22.6686679488       -5.3421374816      -22.5511396011  IM1       182             0.0000000000
      9703       452  IM1       C2            -22.0303850428       -5.2174834089      -23.7959722139  IM1       182             0.0000000000
      9704       452  IM1       DC2           -22.0638704136       -5.2383194713      -23.7624790641  IM1       182             0.0000000000
      9705       452  IM1       H4            -21.6891424897       -6.0489609979      -24.4001969560  IM1       182             0.0000000000
      9706       452  IM1       C3            -21.8284073908       -3.8838783646      -23.9881979226  IM1       182             0.0000000000
      9707       452  IM1       DC3           -21.8436575709       -3.8967763342      -23.9769463018  IM1       182             0.0000000000
      9708       452  IM1       H5            -21.2828653087       -3.3730681276      -24.7720000267  IM1       182             0.0000000000
      9709       452  IM1       C4            -22.8083845203       -4.0811121774      -22.0676119194  IM1       182             0.0000000000
      9710       452  IM1       DC4           -22.8212868849       -4.0971855493      -22.0742632926  IM1       182             0.0000000000
      9711       452  IM1       H6            -23.2549081166       -3.8724108752      -21.0954182940  IM1       182             0.0000000000
      9712       452  IM1       N2            -22.3307315696       -3.1697573645      -22.9092074044  IM1       182             0.0000000000
      9713       452  IM1       DN2           -22.3344409339       -3.1705645491      -22.9064371589  IM1       182             0.0000000000
      9714       452  IM1       H7            -22.2891812588       -2.1815696501      -22.7616993949  IM1       182             0.0000000000
      9715       452  IM1       LPN21         -22.3352603146       -2.8729470887      -22.8658121208  IM1       182             0.0000000000
      9716       453  IM1       C1            -24.6451425769       11.8056621060       -0.9783000956  IM1       183             0.0000000000
      9717       453  IM1       DC1           -24.6432417463       11.8041162904       -0.9981057266  IM1       183             0.0000000000
      9718       453  IM1       H1            -23.6987563666       12.0631482954       -0.4564045072  IM1       183             0.0000000000
      9719       453  IM1       H2            -25.2929661813       11.2230149569       -0.2889758781  IM1       183             0.0000000000
      9720       453  IM1       H3            -25.1603430992       12.7388535599       -1.2914184957  IM1       183             0.0000000000
      9721       453  IM1       N1            -24.3696552802       11.0113838528       -2.1394637761  IM1       183             0.0000000000
      9722       453  IM1       DN1           -24.3809973992       11.0103584042       -2.1575965821  IM1       183             0.0000000000
      9723       453  IM1       C2            -23.1219627936       10.6490760646       -2.5978049787  IM1       183             0.0000000000
      9724       453  IM1       DC2           -23.1476597008       10.6581832879       -2.6017247536  IM1       183             0.0000000000
      9725       453  IM1       H4            -22.1990261540       10.8879581174       -2.0839836820  IM1       183             0.0000000000
      9726       453  IM1       C3            -23.3331784555        9.9355227105       -3.7389611370  IM1       183             0.0000000000
      9727       453  IM1       DC3           -23.3420294332        9.9465816156       -3.7501630499  IM1       183             0.0000000000
      9728       453  IM1       H5            -22.6228047522        9.4438724810       -4.3920600984  IM1       183             0.0000000000
      9729       453  IM1       C4            -25.2881560529       10.5264800630       -3.0129720101  IM1       183             0.0000000000
      9730       453  IM1       DC4           -25.2866984694       10.5341866822       -3.0149488920  IM1       183             0.0000000000
      9731       453  IM1       H6            -26.3631019705       10.6652553560       -2.8975047288  IM1       183             0.0000000000
      9732       453  IM1       N2            -24.6909744546        9.8771802122       -4.0107076526  IM1       183             0.0000000000
      9733       453  IM1       DN2           -24.6953960741        9.8834676870       -4.0188443751  IM1       183             0.0000000000
      9734       453  IM1       H7            -25.1359688067        9.4073967799       -4.7731271916  IM1       183             0.0000000000
      9735       453  IM1       LPN21         -24.8301244772        9.7477793755       -4.2428556543  IM1       183             0.0000000000
      9736       454  IM1       C1             23.1132827964       25.6049690255       10.8997913313  IM1       184             0.0000000000
      9737       454  IM1       DC1            23.0990068126       25.6277284633       10.8692348277  IM1       184             0.0000000000
      9738       454  IM1       H1             22.3442487527       25.2551974032       10.1782877249  IM1       184             0.0000000000
      9739       454  IM1       H2             23.8577928360       26.2521713658       10.3887581311  IM1       184             0.0000000000
      9740       454  IM1       H3             22.6307508101       26.1504629722       11.7387908765  IM1       184             0.0000000000
      9741       454  IM1       N1             23.7866162617       24.4779428495       11.4436185889  IM1       184             0.0000000000
      9742       454  IM1       DN1            23.7847498670       24.5154071548       11.4405611711  IM1       184             0.0000000000
      9743       454  IM1       C2             23.5576720362       23.1561941196       11.1363357169  IM1       184             0.0000000000
      9744       454  IM1       DC2            23.5616229619       23.2129871324       11.1219513383  IM1       184             0.0000000000
      9745       454  IM1       H4             22.7755226356       22.7966487539       10.4791763411  IM1       184             0.0000000000
      9746       454  IM1       C3             24.4395114670       22.4425055843       11.8934978404  IM1       184             0.0000000000
      9747       454  IM1       DC3            24.4257317552       22.4694696021       11.8787134388  IM1       184             0.0000000000
      9748       454  IM1       H5             24.5831008320       21.3718841108       11.9712201329  IM1       184             0.0000000000
      9749       454  IM1       C4             24.7794066790       24.5304963728       12.3625311256  IM1       184             0.0000000000
      9750       454  IM1       DC4            24.7660549602       24.5386851606       12.3519434759  IM1       184             0.0000000000
      9751       454  IM1       H6             25.1617076613       25.4584794768       12.7877291000  IM1       184             0.0000000000
      9752       454  IM1       N2             25.2012381983       23.3100181479       12.6644629706  IM1       184             0.0000000000
      9753       454  IM1       DN2            25.1946636435       23.3188780906       12.6648235738  IM1       184             0.0000000000
      9754       454  IM1       H7             25.9235176178       23.0688079909       13.3126374073  IM1       184             0.0000000000
      9755       454  IM1       LPN21          25.4182782539       23.2453445263       12.8612139221  IM1       184             0.0000000000
      9756       455  IM1       C1            -27.0197438123       -0.4068073928       -9.0937583877  IM1       185             0.0000000000
      9757       455  IM1       DC1           -27.0341045085       -0.3981132193       -9.0971354279  IM1       185             0.0000000000
      9758       455  IM1       H1            -27.1135749212        0.6962615231       -9.0001865446  IM1       185             0.0000000000
      9759       455  IM1       H2            -27.4697948121       -0.8879066608       -8.1991531150  IM1       185             0.0000000000
      9760       455  IM1       H3            -27.5300588371       -0.7524788214      -10.0181018517  IM1       185             0.0000000000
      9761       455  IM1       N1            -25.6376848031       -0.7756581949       -9.1638497519  IM1       185             0.0000000000
      9762       455  IM1       DN1           -25.6565061260       -0.7912825945       -9.1758407006  IM1       185             0.0000000000
      9763       455  IM1       C2            -24.5439359225        0.0610804735       -9.0513497069  IM1       185             0.0000000000
      9764       455  IM1       DC2           -24.5849616365        0.0460354988       -9.0626183463  IM1       185             0.0000000000
      9765       455  IM1       H4            -24.6049921471        1.1313453703       -8.8974205411  IM1       185             0.0000000000
      9766       455  IM1       C3            -23.4427124941       -0.7431790210       -9.1559593720  IM1       185             0.0000000000
      9767       455  IM1       DC3           -23.4644913002       -0.7433825777       -9.1650342032  IM1       185             0.0000000000
      9768       455  IM1       H5            -22.3897655156       -0.4944834821       -9.1075631959  IM1       185             0.0000000000
      9769       455  IM1       C4            -25.1797586519       -2.0425398668       -9.3322896286  IM1       185             0.0000000000
      9770       455  IM1       DC4           -25.1907458963       -2.0385789218       -9.3368780085  IM1       185             0.0000000000
      9771       455  IM1       H6            -25.8321371062       -2.9126194056       -9.4062081558  IM1       185             0.0000000000
      9772       455  IM1       N2            -23.8469600154       -2.0625393490       -9.3527936553  IM1       185             0.0000000000
      9773       455  IM1       DN2           -23.8553351781       -2.0670948116       -9.3598455075  IM1       185             0.0000000000
      9774       455  IM1       H7            -23.2621724211       -2.8701326783       -9.4290595332  IM1       185             0.0000000000
      9775       455  IM1       LPN21         -23.6775781374       -2.3069506329       -9.3924535056  IM1       185             0.0000000000
      9776       456  IM1       C1             14.0070601421      -26.4680662845       13.4030199409  IM1       186             0.0000000000
      9777       456  IM1       DC1            14.0376980755      -26.4707520702       13.3912077643  IM1       186             0.0000000000
      9778       456  IM1       H1             14.6810321589      -26.3708345858       14.2808745518  IM1       186             0.0000000000
      9779       456  IM1       H2             12.9810210216      -26.7212223225       13.7457687463  IM1       186             0.0000000000
      9780       456  IM1       H3             13.9943827567      -25.5147605828       12.8326091025  IM1       186             0.0000000000
      9781       456  IM1       N1             14.4874995246      -27.4916798342       12.5303529799  IM1       186             0.0000000000
      9782       456  IM1       DN1            14.5108571536      -27.4987660151       12.5197553287  IM1       186             0.0000000000
      9783       456  IM1       C2             15.8318532398      -27.5978523818       12.2724110784  IM1       186             0.0000000000
      9784       456  IM1       DC2            15.8466408163      -27.5885917318       12.2716034428  IM1       186             0.0000000000
      9785       456  IM1       H4             16.5955838275      -27.3390601300       12.9953434126  IM1       186             0.0000000000
      9786       456  IM1       C3             15.9238862455      -28.1163112902       11.0245917982  IM1       186             0.0000000000
      9787       456  IM1       DC3            15.9443997649      -28.1372075695       11.0291883894  IM1       186             0.0000000000
      9788       456  IM1       H5             16.8063255712      -28.3534860067       10.4432674548  IM1       186             0.0000000000
      9789       456  IM1       C4             13.8183214779      -27.9629626195       11.4523612242  IM1       186             0.0000000000
      9790       456  IM1       DC4            13.8388232412      -27.9543523050       11.4528360624  IM1       186             0.0000000000
      9791       456  IM1       H6             12.7322211295      -27.9736472524       11.3608632917  IM1       186             0.0000000000
      9792       456  IM1       N2             14.6773685025      -28.3951382553       10.5227357691  IM1       186             0.0000000000
      9793       456  IM1       DN2            14.6904674457      -28.4055395993       10.5280327137  IM1       186             0.0000000000
      9794       456  IM1       H7             14.4541169328      -28.7787542511        9.6266344889  IM1       186             0.0000000000
      9795       456  IM1       LPN21          14.6066382477      -28.5248294761       10.2616277104  IM1       186             0.0000000000
      9796       457  IM1       C1             24.0598603617        7.9758907049       -0.7786509562  IM1       187             0.0000000000
      9797       457  IM1       DC1            24.0364487142        7.9963638233       -0.8048694794  IM1       187             0.0000000000
      9798       457  IM1       H1             24.7442333847        7.2676639411       -1.2928196238  IM1       187             0.0000000000
      9799       457  IM1       H2             24.2290357833        7.8780448691        0.3150248958  IM1       187             0.0000000000
      9800       457  IM1       H3             24.2573897805        9.0159302743       -1.1157278389  IM1       187             0.0000000000
      9801       457  IM1       N1             22.6983245027        7.6283835765       -1.0568211678  IM1       187             0.0000000000
      9802       457  IM1       DN1            22.6602825337        7.6436339033       -1.0619886367  IM1       187             0.0000000000
      9803       457  IM1       C2             22.2868129377        6.6296421077       -1.9037252975  IM1       187             0.0000000000
      9804       457  IM1       DC2            22.2643346274        6.6621373949       -1.9203350539  IM1       187             0.0000000000
      9805       457  IM1       H4             22.9853911633        5.9550069795       -2.3830424226  IM1       187             0.0000000000
      9806       457  IM1       C3             20.9240690329        6.6210566451       -1.8469385284  IM1       187             0.0000000000
      9807       457  IM1       DC3            20.9017174090        6.6372374916       -1.8362839427  IM1       187             0.0000000000
      9808       457  IM1       H5             20.2173946974        5.9833537263       -2.3634996312  IM1       187             0.0000000000
      9809       457  IM1       C4             21.5888822367        8.1978021018       -0.5234405389  IM1       187             0.0000000000
      9810       457  IM1       DC4            21.5758131547        8.1984642492       -0.5114933959  IM1       187             0.0000000000
      9811       457  IM1       H6             21.6245402598        9.0564989949        0.1469833207  IM1       187             0.0000000000
      9812       457  IM1       N2             20.4828215550        7.5984879893       -0.9681403052  IM1       187             0.0000000000
      9813       457  IM1       DN2            20.4616536672        7.6034438859       -0.9527616128  IM1       187             0.0000000000
      9814       457  IM1       H7             19.5347048953        7.8466827493       -0.7694592526  IM1       187             0.0000000000
      9815       457  IM1       LPN21          20.2016696887        7.6672354734       -0.8892263554  IM1       187             0.0000000000
      9816       458  IM1       C1            -17.5137326921       23.7223020417       24.7878249956  IM1       188             0.0000000000
      9817       458  IM1       DC1           -17.5123554544       23.7406403098       24.8450504098  IM1       188             0.0000000000
      9818       458  IM1       H1            -16.6211328951       23.8353068383       24.1360454935  IM1       188             0.0000000000
      9819       458  IM1       H2            -18.4138699673       23.8933629765       24.1594842891  IM1       188             0.0000000000
      9820       458  IM1       H3            -17.5347695765       22.6969308139       25.2150161645  IM1       188             0.0000000000
      9821       458  IM1       N1            -17.4780978871       24.6848726368       25.8502039270  IM1       188             0.0000000000
      9822       458  IM1       DN1           -17.5172063991       24.7029074840       25.9077165782  IM1       188             0.0000000000
      9823       458  IM1       C2            -16.5663544073       25.7018733896       26.0232969832  IM1       188             0.0000000000
      9824       458  IM1       DC2           -16.5995006087       25.6911739739       26.0571731538  IM1       188             0.0000000000
      9825       458  IM1       H4            -15.6973771142       25.8346464382       25.3907317442  IM1       188             0.0000000000
      9826       458  IM1       C3            -17.0005172479       26.4217730751       27.0950120064  IM1       188             0.0000000000
      9827       458  IM1       DC3           -17.0452594551       26.4239978638       27.1323423159  IM1       188             0.0000000000
      9828       458  IM1       H5            -16.5451162195       27.2842001795       27.5658818324  IM1       188             0.0000000000
      9829       458  IM1       C4            -18.4198481071       24.8163859991       26.8094604031  IM1       188             0.0000000000
      9830       458  IM1       DC4           -18.4754624063       24.8261820015       26.8287328797  IM1       188             0.0000000000
      9831       458  IM1       H6            -19.2381151172       24.1057202872       26.9256212663  IM1       188             0.0000000000
      9832       458  IM1       N2            -18.1897841408       25.8805913960       27.5793523208  IM1       188             0.0000000000
      9833       458  IM1       DN2           -18.2383353115       25.8871117588       27.6017704124  IM1       188             0.0000000000
      9834       458  IM1       H7            -18.7221482414       26.1930805967       28.3660790611  IM1       188             0.0000000000
      9835       458  IM1       LPN21         -18.3628183122       25.9748838977       27.8055559893  IM1       188             0.0000000000
      9836       459  IM1       C1             -9.5619604951       21.0890597493      -22.6184442917  IM1       189             0.0000000000
      9837       459  IM1       DC1            -9.5654291810       21.0773284839      -22.6216855787  IM1       189             0.0000000000
      9838       459  IM1       H1             -8.9722466344       20.1476730226      -22.6371417660  IM1       189             0.0000000000
      9839       459  IM1       H2             -9.9014594275       21.3059277082      -23.6538329936  IM1       189             0.0000000000
      9840       459  IM1       H3            -10.4347622887       21.0003976626      -21.9367720364  IM1       189             0.0000000000
      9841       459  IM1       N1             -8.7474141492       22.1605235063      -22.1585968852  IM1       189             0.0000000000
      9842       459  IM1       DN1            -8.7691401747       22.1647393077      -22.1675110328  IM1       189             0.0000000000
      9843       459  IM1       C2             -7.4055336153       22.1111368080      -21.8586822333  IM1       189             0.0000000000
      9844       459  IM1       DC2            -7.4535651969       22.1310253378      -21.8797426585  IM1       189             0.0000000000
      9845       459  IM1       H4             -6.8087926779       21.2086098745      -21.8114129206  IM1       189             0.0000000000
      9846       459  IM1       C3             -7.0187114166       23.4020658512      -21.6720661078  IM1       189             0.0000000000
      9847       459  IM1       DC3            -7.0192211110       23.4200329792      -21.6700618634  IM1       189             0.0000000000
      9848       459  IM1       H5             -6.0349565795       23.8039840577      -21.4633146392  IM1       189             0.0000000000
      9849       459  IM1       C4             -9.1329595594       23.4571646740      -22.1334242963  IM1       189             0.0000000000
      9850       459  IM1       DC4            -9.1355151519       23.4524403330      -22.1342335313  IM1       189             0.0000000000
      9851       459  IM1       H6            -10.1565564823       23.7768823927      -22.3286931362  IM1       189             0.0000000000
      9852       459  IM1       N2             -8.1060897927       24.2470351453      -21.8327840030  IM1       189             0.0000000000
      9853       459  IM1       DN2            -8.1102434560       24.2534484438      -21.8292216014  IM1       189             0.0000000000
      9854       459  IM1       H7             -8.1182803362       25.2449215007      -21.7689544454  IM1       189             0.0000000000
      9855       459  IM1       LPN21          -8.1171965186       24.5457383928      -21.8072299312  IM1       189             0.0000000000
      9856       460  IM1       C1            -19.2056328750       -9.9006290820      -21.0776585746  IM1       190             0.0000000000
      9857       460  IM1       DC1           -19.2320604566       -9.9158516412      -21.0609375895  IM1       190             0.0000000000
      9858       460  IM1       H1            -19.4071543205      -10.7763346405      -20.4243210801  IM1       190             0.0000000000
      9859       460  IM1       H2            -20.1316277802       -9.3029784603      -21.2179018342  IM1       190             0.0000000000
      9860       460  IM1       H3            -18.4219169261       -9.2657372392      -20.6118016666  IM1       190             0.0000000000
      9861       460  IM1       N1            -18.7362112808      -10.3473689311      -22.3584315857  IM1       190             0.0000000000
      9862       460  IM1       DN1           -18.7535707729      -10.3409212693      -22.3533797018  IM1       190             0.0000000000
      9863       460  IM1       C2            -18.6252383924      -11.6614123510      -22.7603112599  IM1       190             0.0000000000
      9864       460  IM1       DC2           -18.6513509276      -11.6502113500      -22.7416969763  IM1       190             0.0000000000
      9865       460  IM1       H4            -18.8294263347      -12.5126536024      -22.1226713802  IM1       190             0.0000000000
      9866       460  IM1       C3            -18.1544655908      -11.6231341097      -24.0370221654  IM1       190             0.0000000000
      9867       460  IM1       DC3           -18.1598515413      -11.6330558251      -24.0207791347  IM1       190             0.0000000000
      9868       460  IM1       H5            -17.9218237576      -12.4318139669      -24.7187872774  IM1       190             0.0000000000
      9869       460  IM1       C4            -18.3583753336       -9.5618654507      -23.3995780989  IM1       190             0.0000000000
      9870       460  IM1       DC4           -18.3656209448       -9.5728275268      -23.3780389194  IM1       190             0.0000000000
      9871       460  IM1       H6            -18.3847840135       -8.4723235319      -23.3822290752  IM1       190             0.0000000000
      9872       460  IM1       N2            -17.9958605677      -10.3092918479      -24.4388205763  IM1       190             0.0000000000
      9873       460  IM1       DN2           -18.0020889854      -10.3195122188      -24.4278316379  IM1       190             0.0000000000
      9874       460  IM1       H7            -17.6896100755       -9.9823908194      -25.3328822931  IM1       190             0.0000000000
      9875       460  IM1       LPN21         -17.9001720701      -10.2052308334      -24.7034240847  IM1       190             0.0000000000
      9876       461  IM1       C1             20.5820981084       25.9456176111       26.9130709118  IM1       191             0.0000000000
      9877       461  IM1       DC1            20.5476640918       25.9595033243       26.9026185581  IM1       191             0.0000000000
      9878       461  IM1       H1             20.1819976710       26.9796258567       26.8418839189  IM1       191             0.0000000000
      9879       461  IM1       H2             20.1469701876       25.4285102426       27.7948785229  IM1       191             0.0000000000
      9880       461  IM1       H3             20.3556010001       25.3829086745       25.9822762442  IM1       191             0.0000000000
      9881       461  IM1       N1             21.9995063034       25.9897190723       27.0820655843  IM1       191             0.0000000000
      9882       461  IM1       DN1            21.9692516949       25.9773855093       27.0769661455  IM1       191             0.0000000000
      9883       461  IM1       C2             22.7739191633       27.1258920801       27.1766646104  IM1       191             0.0000000000
      9884       461  IM1       DC2            22.7297681402       27.1069223283       27.1688428969  IM1       191             0.0000000000
      9885       461  IM1       H4             22.3981867895       28.1397472108       27.1149235609  IM1       191             0.0000000000
      9886       461  IM1       C3             24.0614739988       26.6904356996       27.2906455681  IM1       191             0.0000000000
      9887       461  IM1       DC3            24.0365673860       26.6942417326       27.2853983947  IM1       191             0.0000000000
      9888       461  IM1       H5             24.9873313725       27.2513768693       27.3226163003  IM1       191             0.0000000000
      9889       461  IM1       C4             22.8246654571       24.9144676152       27.1377876665  IM1       191             0.0000000000
      9890       461  IM1       DC4            22.8053442054       24.9313089623       27.1299646040  IM1       191             0.0000000000
      9891       461  IM1       H6             22.4835775524       23.8820921152       27.0605874833  IM1       191             0.0000000000
      9892       461  IM1       N2             24.0901846688       25.3039206596       27.2543482306  IM1       191             0.0000000000
      9893       461  IM1       DN2            24.0812049265       25.3105531762       27.2461086450  IM1       191             0.0000000000
      9894       461  IM1       H7             24.8970874897       24.7134853866       27.2714954172  IM1       191             0.0000000000
      9895       461  IM1       LPN21          24.3275206383       25.1210134371       27.2690650763  IM1       191             0.0000000000
      9896       462  IM1       C1             11.2733868116       19.5482995295      -17.3437664423  IM1       192             0.0000000000
      9897       462  IM1       DC1            11.2627934843       19.5645594842      -17.3387293742  IM1       192             0.0000000000
      9898       462  IM1       H1             10.2935430332       19.9443918176      -17.6863128927  IM1       192             0.0000000000
      9899       462  IM1       H2             11.1501978680       18.5097392740      -16.9688823526  IM1       192             0.0000000000
      9900       462  IM1       H3             11.9990991593       19.5657128022      -18.1848130321  IM1       192             0.0000000000
      9901       462  IM1       N1             11.7997663835       20.3504332741      -16.2949825966  IM1       192             0.0000000000
      9902       462  IM1       DN1            11.8057786250       20.3533116066      -16.2928437872  IM1       192             0.0000000000
      9903       462  IM1       C2             11.1487128624       21.3839600231      -15.6622256948  IM1       192             0.0000000000
      9904       462  IM1       DC2            11.1517240820       21.3768959053      -15.6858727859  IM1       192             0.0000000000
      9905       462  IM1       H4             10.1343417867       21.6923502185      -15.8832139482  IM1       192             0.0000000000
      9906       462  IM1       C3             12.0250153950       21.8568739360      -14.7357427419  IM1       192             0.0000000000
      9907       462  IM1       DC3            12.0340656683       21.8672169909      -14.7643953997  IM1       192             0.0000000000
      9908       462  IM1       H5             11.9180204361       22.6706840996      -14.0292343567  IM1       192             0.0000000000
      9909       462  IM1       C4             13.0368143567       20.2371744958      -15.7527131169  IM1       192             0.0000000000
      9910       462  IM1       DC4            13.0264202501       20.2407004528      -15.7600011534  IM1       192             0.0000000000
      9911       462  IM1       H6             13.7594467498       19.4782598833      -16.0526314981  IM1       192             0.0000000000
      9912       462  IM1       N2             13.2181113305       21.1605409996      -14.8132016722  IM1       192             0.0000000000
      9913       462  IM1       DN2            13.2178052052       21.1712041855      -14.8189472217  IM1       192             0.0000000000
      9914       462  IM1       H7             14.0288279594       21.2812128142      -14.2403344444  IM1       192             0.0000000000
      9915       462  IM1       LPN21          13.4698266270       21.2020781272      -14.6553597369  IM1       192             0.0000000000
      9916       463  IM1       C1            -11.0221125988       20.6122385707       -2.4999074624  IM1       193             0.0000000000
      9917       463  IM1       DC1           -11.0266622442       20.6173739911       -2.5076686290  IM1       193             0.0000000000
      9918       463  IM1       H1            -11.5451611559       19.6434151110       -2.6486431782  IM1       193             0.0000000000
      9919       463  IM1       H2            -11.3905505460       21.0948973039       -1.5695231203  IM1       193             0.0000000000
      9920       463  IM1       H3             -9.9268850509       20.4370568886       -2.4358059941  IM1       193             0.0000000000
      9921       463  IM1       N1            -11.2891142896       21.4872242098       -3.5972310253  IM1       193             0.0000000000
      9922       463  IM1       DN1           -11.2820681718       21.5014220607       -3.6004310212  IM1       193             0.0000000000
      9923       463  IM1       C2            -12.0392297875       21.1794468320       -4.6993440330  IM1       193             0.0000000000
      9924       463  IM1       DC2           -12.0035844893       21.2087248388       -4.7022947285  IM1       193             0.0000000000
      9925       463  IM1       H4            -12.5610969155       20.2375179451       -4.8147289223  IM1       193             0.0000000000
      9926       463  IM1       C3            -11.9763001954       22.2562341148       -5.5250040534  IM1       193             0.0000000000
      9927       463  IM1       DC3           -11.9523897586       22.2878967014       -5.5568223506  IM1       193             0.0000000000
      9928       463  IM1       H5            -12.4442686697       22.4206262669       -6.4877447913  IM1       193             0.0000000000
      9929       463  IM1       C4            -10.7905523256       22.7279285692       -3.7827311034  IM1       193             0.0000000000
      9930       463  IM1       DC4           -10.7893787880       22.7232826893       -3.7931896322  IM1       193             0.0000000000
      9931       463  IM1       H6            -10.1667779905       23.2284270805       -3.0421186413  IM1       193             0.0000000000
      9932       463  IM1       N2            -11.1693125521       23.2215892278       -4.9680180167  IM1       193             0.0000000000
      9933       463  IM1       DN2           -11.1586375732       23.2377687939       -4.9857728725  IM1       193             0.0000000000
      9934       463  IM1       H7            -10.9382491715       24.1188372129       -5.3442569933  IM1       193             0.0000000000
      9935       463  IM1       LPN21         -11.0912001619       23.4876398245       -5.0825410908  IM1       193             0.0000000000
      9936       464  IM1       C1             -8.1892072998      -28.2571916375       17.6781646403  IM1       194             0.0000000000
      9937       464  IM1       DC1            -8.1811652033      -28.2501536190       17.6594698782  IM1       194             0.0000000000
      9938       464  IM1       H1             -7.4000711253      -28.8617442187       18.1742505975  IM1       194             0.0000000000
      9939       464  IM1       H2             -8.7518342397      -28.8870188577       16.9562992791  IM1       194             0.0000000000
      9940       464  IM1       H3             -8.8812381742      -27.8748429583       18.4586925107  IM1       194             0.0000000000
      9941       464  IM1       N1             -7.5946997796      -27.1421641136       16.9854517270  IM1       194             0.0000000000
      9942       464  IM1       DN1            -7.6005513326      -27.1228743708       16.9679817673  IM1       194             0.0000000000
      9943       464  IM1       C2             -6.2456507234      -26.9182442849       16.8014939094  IM1       194             0.0000000000
      9944       464  IM1       DC2            -6.2670450113      -26.9074204734       16.7812945123  IM1       194             0.0000000000
      9945       464  IM1       H4             -5.4767888605      -27.5756698823       17.1881876120  IM1       194             0.0000000000
      9946       464  IM1       C3             -6.1419074516      -25.6891756152       16.2238008923  IM1       194             0.0000000000
      9947       464  IM1       DC3            -6.1494773898      -25.6625200969       16.2056386564  IM1       194             0.0000000000
      9948       464  IM1       H5             -5.2557951209      -25.1165167624       15.9793509473  IM1       194             0.0000000000
      9949       464  IM1       C4             -8.2575282645      -26.0625468637       16.4993538822  IM1       194             0.0000000000
      9950       464  IM1       DC4            -8.2613668052      -26.0573445556       16.4943258357  IM1       194             0.0000000000
      9951       464  IM1       H6             -9.3435396273      -25.9741749182       16.5288448822  IM1       194             0.0000000000
      9952       464  IM1       N2             -7.4050181512      -25.1545271700       16.0154744917  IM1       194             0.0000000000
      9953       464  IM1       DN2            -7.4111245898      -25.1350162370       16.0016351274  IM1       194             0.0000000000
      9954       464  IM1       H7             -7.6349361014      -24.2593916980       15.6335448853  IM1       194             0.0000000000
      9955       464  IM1       LPN21          -7.4796340665      -24.8925488476       15.8897771419  IM1       194             0.0000000000
      9956       465  IM1       C1            -12.2027718290      -26.4153899990       15.4401270380  IM1       195             0.0000000000
      9957       465  IM1       DC1           -12.1860722267      -26.4134689582       15.4336531815  IM1       195             0.0000000000
      9958       465  IM1       H1            -11.2253423594      -26.9262814354       15.3061771510  IM1       195             0.0000000000
      9959       465  IM1       H2            -12.0617188877      -25.4471072085       15.9662957435  IM1       195             0.0000000000
      9960       465  IM1       H3            -12.6801559834      -26.2380939791       14.4527104637  IM1       195             0.0000000000
      9961       465  IM1       N1            -13.0727424763      -27.2222076839       16.2266740174  IM1       195             0.0000000000
      9962       465  IM1       DN1           -13.0840649208      -27.1948541799       16.2173657849  IM1       195             0.0000000000
      9963       465  IM1       C2            -12.8324007746      -28.5018852989       16.6620988198  IM1       195             0.0000000000
      9964       465  IM1       DC2           -12.8136150075      -28.4574875748       16.6324071166  IM1       195             0.0000000000
      9965       465  IM1       H4            -11.9083886668      -29.0474973865       16.5158180132  IM1       195             0.0000000000
      9966       465  IM1       C3            -13.9784224532      -28.9085586055       17.2803055237  IM1       195             0.0000000000
      9967       465  IM1       DC3           -13.9619567666      -28.8647984666       17.2463854351  IM1       195             0.0000000000
      9968       465  IM1       H5            -14.2010705190      -29.8563280009       17.7546998871  IM1       195             0.0000000000
      9969       465  IM1       C4            -14.3366487713      -26.8922553513       16.5771695122  IM1       195             0.0000000000
      9970       465  IM1       DC4           -14.3393369055      -26.8887470604       16.5682391320  IM1       195             0.0000000000
      9971       465  IM1       H6            -14.7812201208      -25.9154380967       16.3866849558  IM1       195             0.0000000000
      9972       465  IM1       N2            -14.9273783113      -27.8994101859       17.2027683598  IM1       195             0.0000000000
      9973       465  IM1       DN2           -14.9436989498      -27.8864073312       17.1916145970  IM1       195             0.0000000000
      9974       465  IM1       H7            -15.8504663948      -27.9139313976       17.5870827162  IM1       195             0.0000000000
      9975       465  IM1       LPN21         -15.2100129730      -27.8989954233       17.3033540245  IM1       195             0.0000000000
      9976       466  IM1       C1             20.9997621164       16.4150032618       11.4884633352  IM1       196             0.0000000000
      9977       466  IM1       DC1            21.0164865197       16.4264474534       11.4980423060  IM1       196             0.0000000000
      9978       466  IM1       H1             21.7647048896       15.7125868321       11.0937549447  IM1       196             0.0000000000
      9979       466  IM1       H2             20.0044112771       16.1232669716       11.0903582691  IM1       196             0.0000000000
      9980       466  IM1       H3             20.9776830309       16.3751985544       12.5985304956  IM1       196             0.0000000000
      9981       466  IM1       N1             21.2997740369       17.7565500854       11.0729959778  IM1       196             0.0000000000
      9982       466  IM1       DN1            21.3114587512       17.7687137114       11.0733054983  IM1       196             0.0000000000
      9983       466  IM1       C2             22.5159522322       18.2229673610       10.6117375203  IM1       196             0.0000000000
      9984       466  IM1       DC2            22.5154234217       18.2299116380       10.6101892691  IM1       196             0.0000000000
      9985       466  IM1       H4             23.3647540528       17.5780768604       10.4205812713  IM1       196             0.0000000000
      9986       466  IM1       C3             22.3464714200       19.5549447233       10.3926755499  IM1       196             0.0000000000
      9987       466  IM1       DC3            22.3664287871       19.5765457204       10.3828101122  IM1       196             0.0000000000
      9988       466  IM1       H5             23.0275945188       20.2911903338        9.9841382501  IM1       196             0.0000000000
      9989       466  IM1       C4             20.4525123472       18.8119641670       11.1363482526  IM1       196             0.0000000000
      9990       466  IM1       DC4            20.4722791015       18.7988629628       11.1425724093  IM1       196             0.0000000000
      9991       466  IM1       H6             19.4221204314       18.7313791035       11.4826119490  IM1       196             0.0000000000
      9992       466  IM1       N2             21.0660909558       19.9298683440       10.7436864249  IM1       196             0.0000000000
      9993       466  IM1       DN2            21.0870863285       19.9253133749       10.7511820115  IM1       196             0.0000000000
      9994       466  IM1       H7             20.6580361548       20.8413659709       10.6920787159  IM1       196             0.0000000000
      9995       466  IM1       LPN21          20.9437351063       20.2036765830       10.7360644580  IM1       196             0.0000000000
      9996       467  IM1       C1             14.0629251060       -9.9571758067       15.5047190394  IM1       197             0.0000000000
      9997       467  IM1       DC1            14.0354935394       -9.9659529337       15.4993175838  IM1       197             0.0000000000
      9998       467  IM1       H1             12.9618970783      -10.0169736470       15.3687686751  IM1       197             0.0000000000
      9999       467  IM1       H2             14.3369143417      -10.2219289470       16.5483457320  IM1       197             0.0000000000
     10000       467  IM1       H3             14.5686883896      -10.6460565238       14.7948121012  IM1       197             0.0000000000
     10001       467  IM1       N1             14.5015395077       -8.6273635907       15.2533128747  IM1       197             0.0000000000
     10002       467  IM1       DN1            14.5015685353       -8.6429245952       15.2528860594  IM1       197             0.0000000000
     10003       467  IM1       C2             13.6927738784       -7.5169436559       15.1328381440  IM1       197             0.0000000000
     10004       467  IM1       DC2            13.6792675139       -7.5628153136       15.1320073466  IM1       197             0.0000000000
     10005       467  IM1       H4             12.6105452450       -7.5314678346       15.0946382305  IM1       197             0.0000000000
     10006       467  IM1       C3             14.5370064349       -6.4528888805       15.0939357139  IM1       197             0.0000000000
     10007       467  IM1       DC3            14.5242522406       -6.4741027989       15.0820609186  IM1       197             0.0000000000
     10008       467  IM1       H5             14.3246276586       -5.3956753913       14.9935171210  IM1       197             0.0000000000
     10009       467  IM1       C4             15.7890554755       -8.2097147002       15.2906100740  IM1       197             0.0000000000
     10010       467  IM1       DC4            15.7698106112       -8.2223206066       15.2809646322  IM1       197             0.0000000000
     10011       467  IM1       H6             16.6435392196       -8.8734221717       15.4227082368  IM1       197             0.0000000000
     10012       467  IM1       N2             15.8498730524       -6.8954573006       15.1562229888  IM1       197             0.0000000000
     10013       467  IM1       DN2            15.8421352641       -6.8999534630       15.1461215755  IM1       197             0.0000000000
     10014       467  IM1       H7             16.6763140702       -6.3324418295       15.1532525813  IM1       197             0.0000000000
     10015       467  IM1       LPN21          16.1029576291       -6.7349209676       15.1429458361  IM1       197             0.0000000000
     10016       468  IM1       C1             17.4381828655        2.2985613140        6.5518981702  IM1       198             0.0000000000
     10017       468  IM1       DC1            17.4292007946        2.2853163409        6.5413836878  IM1       198             0.0000000000
     10018       468  IM1       H1             17.1097672825        1.2499138062        6.7156131965  IM1       198             0.0000000000
     10019       468  IM1       H2             17.8569495694        2.7046054309        7.4974581222  IM1       198             0.0000000000
     10020       468  IM1       H3             18.2094616219        2.3382449213        5.7532272160  IM1       198             0.0000000000
     10021       468  IM1       N1             16.3258295010        3.1061398255        6.1547175055  IM1       198             0.0000000000
     10022       468  IM1       DN1            16.3429869054        3.1235773359        6.1461233413  IM1       198             0.0000000000
     10023       468  IM1       C2             15.0030675523        2.7264537306        6.1097729754  IM1       198             0.0000000000
     10024       468  IM1       DC2            15.0480870556        2.7183101226        6.0851161840  IM1       198             0.0000000000
     10025       468  IM1       H4             14.6274861308        1.7596410880        6.4213831646  IM1       198             0.0000000000
     10026       468  IM1       C3             14.3088193401        3.8337073769        5.7175394470  IM1       198             0.0000000000
     10027       468  IM1       DC3            14.3318805648        3.8316017758        5.6966233376  IM1       198             0.0000000000
     10028       468  IM1       H5             13.2426792322        3.9731606805        5.5879746034  IM1       198             0.0000000000
     10029       468  IM1       C4             16.3977756439        4.4066375220        5.7832477596  IM1       198             0.0000000000
     10030       468  IM1       DC4            16.4060691981        4.4107095254        5.7854724314  IM1       198             0.0000000000
     10031       468  IM1       H6             17.3300019374        4.9706802355        5.7530822987  IM1       198             0.0000000000
     10032       468  IM1       N2             15.1918125362        4.8829435563        5.4919683043  IM1       198             0.0000000000
     10033       468  IM1       DN2            15.2020313763        4.8913088291        5.4852450841  IM1       198             0.0000000000
     10034       468  IM1       H7             14.9627541912        5.8180465861        5.2215711922  IM1       198             0.0000000000
     10035       468  IM1       LPN21          15.1328836250        5.1615456602        5.3975847722  IM1       198             0.0000000000
     10036       469  IM1       C1            -15.6027270196       10.8067281096       24.7891943655  IM1       199             0.0000000000
     10037       469  IM1       DC1           -15.6248045661       10.7735902190       24.8390187397  IM1       199             0.0000000000
     10038       469  IM1       H1            -16.6328098773       10.8302412122       24.3736255479  IM1       199             0.0000000000
     10039       469  IM1       H2            -14.8888368672       10.6081311723       23.9614014521  IM1       199             0.0000000000
     10040       469  IM1       H3            -15.3663737769       11.7934038303       25.2418853935  IM1       199             0.0000000000
     10041       469  IM1       N1            -15.4804396762        9.7812249026       25.7915139439  IM1       199             0.0000000000
     10042       469  IM1       DN1           -15.4974852099        9.7442408543       25.8255240935  IM1       199             0.0000000000
     10043       469  IM1       C2            -16.4912873344        8.9466081031       26.2275174265  IM1       199             0.0000000000
     10044       469  IM1       DC2           -16.5045034608        8.9261891569       26.2458027469  IM1       199             0.0000000000
     10045       469  IM1       H4            -17.4965481129        8.9828872251       25.8262399739  IM1       199             0.0000000000
     10046       469  IM1       C3            -15.9380146035        8.1505001687       27.1821315034  IM1       199             0.0000000000
     10047       469  IM1       DC3           -15.9438955625        8.1185452017       27.2050215865  IM1       199             0.0000000000
     10048       469  IM1       H5            -16.3796904235        7.3582111823       27.7738152300  IM1       199             0.0000000000
     10049       469  IM1       C4            -14.3590620731        9.4693263914       26.4939077611  IM1       199             0.0000000000
     10050       469  IM1       DC4           -14.3798321024        9.4629826081       26.4974747965  IM1       199             0.0000000000
     10051       469  IM1       H6            -13.4051960182        9.9786686933       26.3567583211  IM1       199             0.0000000000
     10052       469  IM1       N2            -14.6065157356        8.4733617328       27.3540984403  IM1       199             0.0000000000
     10053       469  IM1       DN2           -14.6197375337        8.4604851573       27.3621444940  IM1       199             0.0000000000
     10054       469  IM1       H7            -13.9531919599        8.0561372031       27.9858355188  IM1       199             0.0000000000
     10055       469  IM1       LPN21         -14.4083239899        8.3503564446       27.5427508482  IM1       199             0.0000000000
     10056       470  IM1       C1             19.0752236968        0.0262690065        4.4060011041  IM1       200             0.0000000000
     10057       470  IM1       DC1            19.0418462931        0.0176499366        4.3940813657  IM1       200             0.0000000000
     10058       470  IM1       H1             18.0373757710        0.4198340863        4.4539512061  IM1       200             0.0000000000
     10059       470  IM1       H2             19.6133909614        0.4865185068        3.5499243591  IM1       200             0.0000000000
     10060       470  IM1       H3             19.6040547195        0.2742880837        5.3510647458  IM1       200             0.0000000000
     10061       470  IM1       N1             19.0599287792       -1.3973051575        4.2410331643  IM1       200             0.0000000000
     10062       470  IM1       DN1            19.0282258317       -1.4046613197        4.2343787289  IM1       200             0.0000000000
     10063       470  IM1       C2             17.9265176478       -2.1815085320        4.1582175134  IM1       200             0.0000000000
     10064       470  IM1       DC2            17.9052253446       -2.1755354104        4.1563229780  IM1       200             0.0000000000
     10065       470  IM1       H4             16.9205702588       -1.7972121160        4.2734352060  IM1       200             0.0000000000
     10066       470  IM1       C3             18.3684633356       -3.4505356792        3.9385726140  IM1       200             0.0000000000
     10067       470  IM1       DC3            18.3397371317       -3.4610073617        3.9375036033  IM1       200             0.0000000000
     10068       470  IM1       H5             17.8186723862       -4.3773009004        3.8302899426  IM1       200             0.0000000000
     10069       470  IM1       C4             20.1369000063       -2.2031964218        4.0653206394  IM1       200             0.0000000000
     10070       470  IM1       DC4            20.0889361572       -2.1869836147        4.0497216772  IM1       200             0.0000000000
     10071       470  IM1       H6             21.1692245361       -1.8596383512        4.1314562372  IM1       200             0.0000000000
     10072       470  IM1       N2             19.7431862681       -3.4637451343        3.8583963360  IM1       200             0.0000000000
     10073       470  IM1       DN2            19.7100898341       -3.4645303309        3.8474270777  IM1       200             0.0000000000
     10074       470  IM1       H7             20.3412917550       -4.2553306273        3.7332474895  IM1       200             0.0000000000
     10075       470  IM1       LPN21          19.9234306845       -3.6976917623        3.8056618540  IM1       200             0.0000000000
     10076       471  IM1       C1            -11.7016305884       20.1228430538       16.4055561487  IM1       201             0.0000000000
     10077       471  IM1       DC1           -11.6947889496       20.1201977084       16.3987104968  IM1       201             0.0000000000
     10078       471  IM1       H1            -11.2240884099       19.1200265708       16.4307269512  IM1       201             0.0000000000
     10079       471  IM1       H2            -12.4318833953       20.1702652817       15.5696117894  IM1       201             0.0000000000
     10080       471  IM1       H3            -12.2107010031       20.3143895993       17.3743070116  IM1       201             0.0000000000
     10081       471  IM1       N1            -10.7084943113       21.1307792696       16.2070554022  IM1       201             0.0000000000
     10082       471  IM1       DN1           -10.7100600630       21.1392852957       16.2058806041  IM1       201             0.0000000000
     10083       471  IM1       C2             -9.3448997788       20.9441062829       16.2828524665  IM1       201             0.0000000000
     10084       471  IM1       DC2            -9.3633086046       20.9495675320       16.2802142496  IM1       201             0.0000000000
     10085       471  IM1       H4             -8.8686884713       19.9786697270       16.4013600487  IM1       201             0.0000000000
     10086       471  IM1       C3             -8.7938887563       22.1836610977       16.1985449487  IM1       201             0.0000000000
     10087       471  IM1       DC3            -8.7927416990       22.1915120190       16.1920785948  IM1       201             0.0000000000
     10088       471  IM1       H5             -7.7557494919       22.4908289530       16.2268958989  IM1       201             0.0000000000
     10089       471  IM1       C4            -10.9413930413       22.4605242727       16.0758683341  IM1       201             0.0000000000
     10090       471  IM1       DC4           -10.9375354052       22.4490060409       16.0794693563  IM1       201             0.0000000000
     10091       471  IM1       H6            -11.9369190729       22.9038306641       16.0533435989  IM1       201             0.0000000000
     10092       471  IM1       N2             -9.7920225766       23.1330079422       16.0562086574  IM1       201             0.0000000000
     10093       471  IM1       DN2            -9.7867412569       23.1325516364       16.0559577033  IM1       201             0.0000000000
     10094       471  IM1       H7             -9.6827332126       24.1254673684       16.0007098083  IM1       201             0.0000000000
     10095       471  IM1       LPN21          -9.7643570704       23.4302502510       16.0265164092  IM1       201             0.0000000000
     10096       472  IM1       C1             11.7645994449        5.1100498879       14.8697918661  IM1       202             0.0000000000
     10097       472  IM1       DC1            11.7777017620        5.0975601738       14.8823550283  IM1       202             0.0000000000
     10098       472  IM1       H1             10.9455037213        4.4208792801       14.5723913466  IM1       202             0.0000000000
     10099       472  IM1       H2             12.4152124141        5.3126063810       13.9922984855  IM1       202             0.0000000000
     10100       472  IM1       H3             11.3373110885        6.0652620491       15.2430416322  IM1       202             0.0000000000
     10101       472  IM1       N1             12.5522915322        4.5267965246       15.9108966538  IM1       202             0.0000000000
     10102       472  IM1       DN1            12.5673451482        4.5191478243       15.9238510587  IM1       202             0.0000000000
     10103       472  IM1       C2             12.3810539905        3.2814729095       16.4807071359  IM1       202             0.0000000000
     10104       472  IM1       DC2            12.3612820505        3.2723038552       16.4553772991  IM1       202             0.0000000000
     10105       472  IM1       H4             11.5823069820        2.6054731853       16.2015717041  IM1       202             0.0000000000
     10106       472  IM1       C3             13.3546322112        3.1717827749       17.4269542844  IM1       202             0.0000000000
     10107       472  IM1       DC3            13.3147581269        3.1858521456       17.4192913778  IM1       202             0.0000000000
     10108       472  IM1       H5             13.5508172757        2.3628516844       18.1197969162  IM1       202             0.0000000000
     10109       472  IM1       C4             13.6116240023        5.1189689137       16.5111528077  IM1       202             0.0000000000
     10110       472  IM1       DC4            13.6011985930        5.1214007012       16.5059434027  IM1       202             0.0000000000
     10111       472  IM1       H6             14.0036413219        6.0925220262       16.2168455540  IM1       202             0.0000000000
     10112       472  IM1       N2             14.1033801654        4.3389784812       17.4648098213  IM1       202             0.0000000000
     10113       472  IM1       DN2            14.0850333122        4.3479682462       17.4718094172  IM1       202             0.0000000000
     10114       472  IM1       H7             14.9201887548        4.5106584877       18.0155817376  IM1       202             0.0000000000
     10115       472  IM1       LPN21          14.3310574415        4.4100897754       17.6467610285  IM1       202             0.0000000000
     10116       473  IM1       C1             23.5521553740        1.1969714285       -3.1555698510  IM1       203             0.0000000000
     10117       473  IM1       DC1            23.5385089861        1.1746690518       -3.1952469531  IM1       203             0.0000000000
     10118       473  IM1       H1             24.5831910205        1.5192342759       -3.4152487971  IM1       203             0.0000000000
     10119       473  IM1       H2             23.2559983988        0.2981054433       -3.7375079813  IM1       203             0.0000000000
     10120       473  IM1       H3             23.5133892039        0.9948799853       -2.0637927526  IM1       203             0.0000000000
     10121       473  IM1       N1             22.6327862251        2.2411783764       -3.4517019437  IM1       203             0.0000000000
     10122       473  IM1       DN1            22.5907343779        2.2281323367       -3.4762035202  IM1       203             0.0000000000
     10123       473  IM1       C2             22.9363122957        3.4651427793       -4.0046638908  IM1       203             0.0000000000
     10124       473  IM1       DC2            22.9008064178        3.4384517051       -4.0539618940  IM1       203             0.0000000000
     10125       473  IM1       H4             23.9551584014        3.7936385876       -4.1687739661  IM1       203             0.0000000000
     10126       473  IM1       C3             21.7738133014        4.1669833460       -3.9968635356  IM1       203             0.0000000000
     10127       473  IM1       DC3            21.7458197150        4.1673742319       -4.0153182111  IM1       203             0.0000000000
     10128       473  IM1       H5             21.5821196862        5.1943280727       -4.2809504423  IM1       203             0.0000000000
     10129       473  IM1       C4             21.3151663700        2.2306881684       -3.1496892915  IM1       203             0.0000000000
     10130       473  IM1       DC4            21.2874944680        2.2107598268       -3.1507074964  IM1       203             0.0000000000
     10131       473  IM1       H6             20.8232152682        1.3911062686       -2.6585820252  IM1       203             0.0000000000
     10132       473  IM1       N2             20.7498384377        3.3813537652       -3.4805562138  IM1       203             0.0000000000
     10133       473  IM1       DN2            20.7390545487        3.3638549935       -3.4919719538  IM1       203             0.0000000000
     10134       473  IM1       H7             19.7995786626        3.6533550848       -3.3288273703  IM1       203             0.0000000000
     10135       473  IM1       LPN21          20.4593155464        3.4480324721       -3.4466386717  IM1       203             0.0000000000
     10136       474  IM1       C1              9.1460284378       26.7881182833        2.8750620345  IM1       204             0.0000000000
     10137       474  IM1       DC1             9.1561538043       26.7860773038        2.8790123732  IM1       204             0.0000000000
     10138       474  IM1       H1              9.0307115540       25.7260476214        3.1800684723  IM1       204             0.0000000000
     10139       474  IM1       H2              8.7626245929       26.9197432804        1.8406552713  IM1       204             0.0000000000
     10140       474  IM1       H3              8.5826549863       27.4418920072        3.5747128561  IM1       204             0.0000000000
     10141       474  IM1       N1             10.5253909750       27.1674518332        2.9109322911  IM1       204             0.0000000000
     10142       474  IM1       DN1            10.5284916786       27.1785533871        2.9045735058  IM1       204             0.0000000000
     10143       474  IM1       C2             11.5843892856       26.3493570307        3.2334246420  IM1       204             0.0000000000
     10144       474  IM1       DC2            11.5639363927       26.3634503389        3.2227293143  IM1       204             0.0000000000
     10145       474  IM1       H4             11.4859719882       25.3106839698        3.5238748245  IM1       204             0.0000000000
     10146       474  IM1       C3             12.6998351617       27.1251983493        3.1399829514  IM1       204             0.0000000000
     10147       474  IM1       DC3            12.6961331772       27.1302480638        3.1271750405  IM1       204             0.0000000000
     10148       474  IM1       H5             13.7348175313       26.8803540492        3.3443154335  IM1       204             0.0000000000
     10149       474  IM1       C4             11.0236242824       28.3953703656        2.6210756663  IM1       204             0.0000000000
     10150       474  IM1       DC4            11.0202673348       28.3866825356        2.6141932111  IM1       204             0.0000000000
     10151       474  IM1       H6             10.4025582708       29.2495506520        2.3513479364  IM1       204             0.0000000000
     10152       474  IM1       N2             12.3503655617       28.4017870541        2.7331436496  IM1       204             0.0000000000
     10153       474  IM1       DN2            12.3516129953       28.3998342695        2.7239888531  IM1       204             0.0000000000
     10154       474  IM1       H7             12.9602645450       29.1827105948        2.5983042867  IM1       204             0.0000000000
     10155       474  IM1       LPN21          12.5291443857       28.6365797451        2.6791943742  IM1       204             0.0000000000
     10156       475  IM1       C1             14.1230496148      -13.5596997204       16.4350442862  IM1       205             0.0000000000
     10157       475  IM1       DC1            14.1342888485      -13.5472161429       16.4239799249  IM1       205             0.0000000000
     10158       475  IM1       H1             15.1956558259      -13.5902322348       16.1471125579  IM1       205             0.0000000000
     10159       475  IM1       H2             14.0257582465      -13.6633046411       17.5369160625  IM1       205             0.0000000000
     10160       475  IM1       H3             13.6734543706      -12.5993810094       16.1034223767  IM1       205             0.0000000000
     10161       475  IM1       N1             13.4179890149      -14.6332556754       15.8023164671  IM1       205             0.0000000000
     10162       475  IM1       DN1            13.4051708842      -14.6163185763       15.8075643076  IM1       205             0.0000000000
     10163       475  IM1       C2             13.9436075843      -15.5414783903       14.9115937649  IM1       205             0.0000000000
     10164       475  IM1       DC2            13.9279567347      -15.5140937771       14.9273022122  IM1       205             0.0000000000
     10165       475  IM1       H4             14.9963026533      -15.6039638226       14.6649813922  IM1       205             0.0000000000
     10166       475  IM1       C3             12.8993964355      -16.3170394324       14.5065507947  IM1       205             0.0000000000
     10167       475  IM1       DC3            12.8985397357      -16.3105729791       14.5034101067  IM1       205             0.0000000000
     10168       475  IM1       H5             12.8832163070      -17.1687997968       13.8378718845  IM1       205             0.0000000000
     10169       475  IM1       C4             12.0883621506      -14.8743884547       15.9021707828  IM1       205             0.0000000000
     10170       475  IM1       DC4            12.0915525452      -14.8549652115       15.8882869927  IM1       205             0.0000000000
     10171       475  IM1       H6             11.4254602218      -14.3181824338       16.5649647894  IM1       205             0.0000000000
     10172       475  IM1       N2             11.7310495342      -15.8795340308       15.1102782040  IM1       205             0.0000000000
     10173       475  IM1       DN2            11.7310989224      -15.8677988618       15.1055662765  IM1       205             0.0000000000
     10174       475  IM1       H7             10.8157726440      -16.2706293239       15.0137759450  IM1       205             0.0000000000
     10175       475  IM1       LPN21          11.4517224698      -15.9834188372       15.0758639905  IM1       205             0.0000000000
     10176       476  IM1       C1             25.6102076498      -16.9472393452      -14.8026564768  IM1       206             0.0000000000
     10177       476  IM1       DC1            25.6458969871      -16.9385100019      -14.7613856990  IM1       206             0.0000000000
     10178       476  IM1       H1             26.2917344454      -16.1045437806      -15.0470054340  IM1       206             0.0000000000
     10179       476  IM1       H2             24.5836091931      -16.5650511781      -14.6173221476  IM1       206             0.0000000000
     10180       476  IM1       H3             25.5924081968      -17.6580872551      -15.6562954112  IM1       206             0.0000000000
     10181       476  IM1       N1             26.0425986878      -17.6436121054      -13.6437405329  IM1       206             0.0000000000
     10182       476  IM1       DN1            26.0735093590      -17.6329084058      -13.6124022505  IM1       206             0.0000000000
     10183       476  IM1       C2             27.1414370964      -17.3348770436      -12.8741946870  IM1       206             0.0000000000
     10184       476  IM1       DC2            27.1462253208      -17.2956695786      -12.8555419870  IM1       206             0.0000000000
     10185       476  IM1       H4             27.8494154783      -16.5567636034      -13.1314787416  IM1       206             0.0000000000
     10186       476  IM1       C3             27.1426270894      -18.2408484977      -11.8578336267  IM1       206             0.0000000000
     10187       476  IM1       DC3            27.1516980845      -18.2176457476      -11.8376404840  IM1       206             0.0000000000
     10188       476  IM1       H5             27.8268282987      -18.3598085953      -11.0268064308  IM1       206             0.0000000000
     10189       476  IM1       C4             25.4064465236      -18.6917805735      -13.0678461130  IM1       206             0.0000000000
     10190       476  IM1       DC4            25.4397964842      -18.6673415978      -13.0705287523  IM1       206             0.0000000000
     10191       476  IM1       H6             24.4735601246      -19.1027788402      -13.4537261349  IM1       206             0.0000000000
     10192       476  IM1       N2             26.0476813063      -19.0718757417      -11.9623365311  IM1       206             0.0000000000
     10193       476  IM1       DN2            26.0679219337      -19.0560118787      -11.9524176916  IM1       206             0.0000000000
     10194       476  IM1       H7             25.7835312886      -19.8181375356      -11.3513389014  IM1       206             0.0000000000
     10195       476  IM1       LPN21          25.9644127756      -19.2940489201      -11.7787461430  IM1       206             0.0000000000
     10196       477  IM1       C1            -13.8899341907       16.0357421709        5.3463558573  IM1       207             0.0000000000
     10197       477  IM1       DC1           -13.8952904973       16.0385083346        5.3449757054  IM1       207             0.0000000000
     10198       477  IM1       H1            -14.7784050491       16.4340934075        5.8813856003  IM1       207             0.0000000000
     10199       477  IM1       H2            -13.3183756918       16.8768567891        4.8989543782  IM1       207             0.0000000000
     10200       477  IM1       H3            -13.2472876420       15.4686375879        6.0532637763  IM1       207             0.0000000000
     10201       477  IM1       N1            -14.3119361050       15.1557546558        4.2997809774  IM1       207             0.0000000000
     10202       477  IM1       DN1           -14.3048897618       15.1548426792        4.2921903019  IM1       207             0.0000000000
     10203       477  IM1       C2            -15.6114284438       14.7927650326        4.0198083234  IM1       207             0.0000000000
     10204       477  IM1       DC2           -15.5800271770       14.7750875745        4.0080385082  IM1       207             0.0000000000
     10205       477  IM1       H4            -16.4673991583       15.1824972055        4.5567552214  IM1       207             0.0000000000
     10206       477  IM1       C3            -15.5418713752       13.9302113155        2.9702936530  IM1       207             0.0000000000
     10207       477  IM1       DC3           -15.5456441654       13.9128194092        2.9497240002  IM1       207             0.0000000000
     10208       477  IM1       H5            -16.3343440372       13.4125701003        2.4440582932  IM1       207             0.0000000000
     10209       477  IM1       C4            -13.5031172416       14.5131701836        3.4210847382  IM1       207             0.0000000000
     10210       477  IM1       DC4           -13.5117770434       14.5191000938        3.4206362884  IM1       207             0.0000000000
     10211       477  IM1       H6            -12.4169615368       14.6043759013        3.4279623847  IM1       207             0.0000000000
     10212       477  IM1       N2            -14.2215046685       13.7554374204        2.5897917606  IM1       207             0.0000000000
     10213       477  IM1       DN2           -14.2213662953       13.7507900612        2.5834760732  IM1       207             0.0000000000
     10214       477  IM1       H7            -13.8707120905       13.1750682890        1.8548657508  IM1       207             0.0000000000
     10215       477  IM1       LPN21         -14.1115582848       13.5852134610        2.3685778452  IM1       207             0.0000000000
     10216       478  IM1       C1             24.7435600083       -6.7238531568       22.2774500869  IM1       208             0.0000000000
     10217       478  IM1       DC1            24.7418671352       -6.7105664987       22.2733358332  IM1       208             0.0000000000
     10218       478  IM1       H1             25.5440931445       -6.7973460127       21.5105951473  IM1       208             0.0000000000
     10219       478  IM1       H2             25.0750733413       -7.2551149925       23.1951541634  IM1       208             0.0000000000
     10220       478  IM1       H3             24.5359647253       -5.6588590109       22.5162233454  IM1       208             0.0000000000
     10221       478  IM1       N1             23.5456366068       -7.3307271326       21.7778602743  IM1       208             0.0000000000
     10222       478  IM1       DN1            23.5543319869       -7.3188556569       21.7717884061  IM1       208             0.0000000000
     10223       478  IM1       C2             23.4422011721       -8.0848557875       20.6280238987  IM1       208             0.0000000000
     10224       478  IM1       DC2            23.4431762434       -8.0582150913       20.6418736808  IM1       208             0.0000000000
     10225       478  IM1       H4             24.2736553937       -8.3022839221       19.9690110888  IM1       208             0.0000000000
     10226       478  IM1       C3             22.1439020051       -8.4896712062       20.5651733992  IM1       208             0.0000000000
     10227       478  IM1       DC3            22.1497001207       -8.4923664284       20.5469856909  IM1       208             0.0000000000
     10228       478  IM1       H5             21.6431945610       -9.1293682395       19.8489550239  IM1       208             0.0000000000
     10229       478  IM1       C4             22.3228086086       -7.2942204523       22.3617319371  IM1       208             0.0000000000
     10230       478  IM1       DC4            22.3497498733       -7.2962066315       22.3468347070  IM1       208             0.0000000000
     10231       478  IM1       H6             22.1210469960       -6.8047486101       23.3145223482  IM1       208             0.0000000000
     10232       478  IM1       N2             21.4386435786       -7.9723768388       21.6335003450  IM1       208             0.0000000000
     10233       478  IM1       DN2            21.4452595691       -7.9626861363       21.6136683332  IM1       208             0.0000000000
     10234       478  IM1       H7             20.4860823409       -8.1554690517       21.8766141660  IM1       208             0.0000000000
     10235       478  IM1       LPN21          21.1467166037       -8.0018936377       21.6960095435  IM1       208             0.0000000000
     10236       479  IM1       C1             19.6991320320       26.8155305243       10.7175144750  IM1       209             0.0000000000
     10237       479  IM1       DC1            19.7590161183       26.8713012331       10.7071011547  IM1       209             0.0000000000
     10238       479  IM1       H1             20.6567961235       26.2686529402       10.8521450716  IM1       209             0.0000000000
     10239       479  IM1       H2             19.4709778742       27.3619000417       11.6575926800  IM1       209             0.0000000000
     10240       479  IM1       H3             19.7504719454       27.4873838498        9.8341695128  IM1       209             0.0000000000
     10241       479  IM1       N1             18.6675503510       25.8710333404       10.5041468821  IM1       209             0.0000000000
     10242       479  IM1       DN1            18.6951660564       25.9602843910       10.5002036503  IM1       209             0.0000000000
     10243       479  IM1       C2             18.7851060079       24.5137116154       10.5122793905  IM1       209             0.0000000000
     10244       479  IM1       DC2            18.8290590634       24.6252800118       10.5114660720  IM1       209             0.0000000000
     10245       479  IM1       H4             19.6854390274       23.9375491082       10.6864236386  IM1       209             0.0000000000
     10246       479  IM1       C3             17.5234554919       24.0297957735       10.3254464235  IM1       209             0.0000000000
     10247       479  IM1       DC3            17.5521752731       24.0967467009       10.3581923113  IM1       209             0.0000000000
     10248       479  IM1       H5             17.1489098611       23.0138686857       10.3477337023  IM1       209             0.0000000000
     10249       479  IM1       C4             17.3626842836       26.1643054134       10.3211040672  IM1       209             0.0000000000
     10250       479  IM1       DC4            17.3841209008       26.1929121822       10.3193008633  IM1       209             0.0000000000
     10251       479  IM1       H6             16.9481615544       27.1723686188       10.3121888626  IM1       209             0.0000000000
     10252       479  IM1       N2             16.6298080158       25.0848504431       10.2172706780  IM1       209             0.0000000000
     10253       479  IM1       DN2            16.6265304075       25.1101369689       10.2244278205  IM1       209             0.0000000000
     10254       479  IM1       H7             15.6390627645       25.0425717363       10.0882886712  IM1       209             0.0000000000
     10255       479  IM1       LPN21          16.3323565535       25.0804405890       10.1784998023  IM1       209             0.0000000000
     10256       480  IM1       C1            -11.4141085095      -11.2244308383       -1.7641934015  IM1       210             0.0000000000
     10257       480  IM1       DC1           -11.3934496189      -11.2196235788       -1.7332891671  IM1       210             0.0000000000
     10258       480  IM1       H1            -12.0215384485      -12.1035368296       -2.0683685589  IM1       210             0.0000000000
     10259       480  IM1       H2            -11.1249446580      -10.6512147770       -2.6709064841  IM1       210             0.0000000000
     10260       480  IM1       H3            -12.0101953579      -10.5946472999       -1.0696617854  IM1       210             0.0000000000
     10261       480  IM1       N1            -10.2408950158      -11.6728742306       -1.1008096532  IM1       210             0.0000000000
     10262       480  IM1       DN1           -10.2210945591      -11.6677330937       -1.0837635666  IM1       210             0.0000000000
     10263       480  IM1       C2             -9.9112067836      -12.9853196598       -0.8657422751  IM1       210             0.0000000000
     10264       480  IM1       DC2            -9.9200478013      -12.9728216317       -0.8555102039  IM1       210             0.0000000000
     10265       480  IM1       H4            -10.4787810910      -13.8224170924       -1.2530616464  IM1       210             0.0000000000
     10266       480  IM1       C3             -8.7576567413      -12.9486255837       -0.1521738830  IM1       210             0.0000000000
     10267       480  IM1       DC3            -8.7604045755      -12.9503407076       -0.1433363169  IM1       210             0.0000000000
     10268       480  IM1       H5             -8.1476821921      -13.7621263461        0.2207021808  IM1       210             0.0000000000
     10269       480  IM1       C4             -9.2932016765      -10.8952277789       -0.5264713689  IM1       210             0.0000000000
     10270       480  IM1       DC4            -9.2994840489      -10.8834119263       -0.5276735943  IM1       210             0.0000000000
     10271       480  IM1       H6             -9.2890532628       -9.8060858532       -0.5695138645  IM1       210             0.0000000000
     10272       480  IM1       N2             -8.3713454718      -11.6411742184        0.0655866242  IM1       210             0.0000000000
     10273       480  IM1       DN2            -8.3759891513      -11.6410488486        0.0580379378  IM1       210             0.0000000000
     10274       480  IM1       H7             -7.5470727212      -11.3233575402        0.5341663844  IM1       210             0.0000000000
     10275       480  IM1       LPN21          -8.1317402124      -11.5382728882        0.2139127375  IM1       210             0.0000000000
     10276       481  IM1       C1              1.6441619099      -18.4246447426        9.5697351905  IM1       211             0.0000000000
     10277       481  IM1       DC1             1.6550248984      -18.4103655522        9.5576510980  IM1       211             0.0000000000
     10278       481  IM1       H1              1.4503865867      -18.5775501928        8.4865029676  IM1       211             0.0000000000
     10279       481  IM1       H2              1.7132620293      -19.4125449905       10.0733216022  IM1       211             0.0000000000
     10280       481  IM1       H3              2.5775392312      -17.8428477058        9.7267064743  IM1       211             0.0000000000
     10281       481  IM1       N1              0.5636331211      -17.6971852318       10.1221825882  IM1       211             0.0000000000
     10282       481  IM1       DN1             0.5741369917      -17.6922561808       10.1163178820  IM1       211             0.0000000000
     10283       481  IM1       C2             -0.4442544523      -17.0917506770        9.4067240122  IM1       211             0.0000000000
     10284       481  IM1       DC2            -0.4160289320      -17.0979948211        9.3894953123  IM1       211             0.0000000000
     10285       481  IM1       H4             -0.5497198035      -17.1689362271        8.3316386892  IM1       211             0.0000000000
     10286       481  IM1       C3             -1.2579055088      -16.5153217825       10.3329398334  IM1       211             0.0000000000
     10287       481  IM1       DC3            -1.2401070921      -16.5032079968       10.3065106724  IM1       211             0.0000000000
     10288       481  IM1       H5             -2.2032821240      -16.0016950710       10.2090864665  IM1       211             0.0000000000
     10289       481  IM1       C4              0.3604796237      -17.4449981827       11.4351348909  IM1       211             0.0000000000
     10290       481  IM1       DC4             0.3784152357      -17.4370425523       11.4057006754  IM1       211             0.0000000000
     10291       481  IM1       H6              1.0020577378      -17.8253159259       12.2300159749  IM1       211             0.0000000000
     10292       481  IM1       N2             -0.7284315812      -16.7004567791       11.5969845304  IM1       211             0.0000000000
     10293       481  IM1       DN2            -0.7174586249      -16.6905605285       11.5742584975  IM1       211             0.0000000000
     10294       481  IM1       H7             -1.1264917157      -16.4144986320       12.4686358755  IM1       211             0.0000000000
     10295       481  IM1       LPN21          -0.8313134096      -16.5975639917       11.8593362098  IM1       211             0.0000000000
     10296       482  IM1       C1            -14.6105263880      -17.6176636280       17.7501134556  IM1       212             0.0000000000
     10297       482  IM1       DC1           -14.6322645680      -17.6156042097       17.7387392424  IM1       212             0.0000000000
     10298       482  IM1       H1            -15.3639313108      -17.0334576507       17.1796702955  IM1       212             0.0000000000
     10299       482  IM1       H2            -13.7038944271      -17.7754361705       17.1276607970  IM1       212             0.0000000000
     10300       482  IM1       H3            -14.3376067850      -17.0750864501       18.6804069026  IM1       212             0.0000000000
     10301       482  IM1       N1            -15.1474208885      -18.8838408220       18.1080933786  IM1       212             0.0000000000
     10302       482  IM1       DN1           -15.1483102342      -18.8826165758       18.1127416008  IM1       212             0.0000000000
     10303       482  IM1       C2            -16.4686609622      -19.2544508543       18.0290208677  IM1       212             0.0000000000
     10304       482  IM1       DC2           -16.4615674524      -19.2268997051       18.0300136594  IM1       212             0.0000000000
     10305       482  IM1       H4            -17.2482693495      -18.6715534051       17.5543311521  IM1       212             0.0000000000
     10306       482  IM1       C3            -16.5384241597      -20.4761400414       18.6147237053  IM1       212             0.0000000000
     10307       482  IM1       DC3           -16.5378078706      -20.4639078090       18.6235594020  IM1       212             0.0000000000
     10308       482  IM1       H5            -17.3931808507      -21.1211518020       18.7767108276  IM1       212             0.0000000000
     10309       482  IM1       C4            -14.4716671800      -19.8725249696       18.7389943633  IM1       212             0.0000000000
     10310       482  IM1       DC4           -14.4821065014      -19.8594138868       18.7335834119  IM1       212             0.0000000000
     10311       482  IM1       H6            -13.4135287980      -19.8049662204       18.9917372759  IM1       212             0.0000000000
     10312       482  IM1       N2            -15.2911730607      -20.8618211239       19.0691887658  IM1       212             0.0000000000
     10313       482  IM1       DN2           -15.2971552822      -20.8568773020       19.0733903907  IM1       212             0.0000000000
     10314       482  IM1       H7            -15.0506167250      -21.7041288627       19.5515271562  IM1       212             0.0000000000
     10315       482  IM1       LPN21         -15.2128718019      -21.1133426226       19.2127361396  IM1       212             0.0000000000
     10316       483  IM1       C1              4.2430960360       -8.9809820233       -2.2214670176  IM1       213             0.0000000000
     10317       483  IM1       DC1             4.2560188440       -8.9706489653       -2.2066317782  IM1       213             0.0000000000
     10318       483  IM1       H1              3.6108018417       -8.2920322074       -1.6215726911  IM1       213             0.0000000000
     10319       483  IM1       H2              5.2525536194       -8.5382977623       -2.3605606273  IM1       213             0.0000000000
     10320       483  IM1       H3              4.3105704475       -9.9647601200       -1.7096576187  IM1       213             0.0000000000
     10321       483  IM1       N1              3.6530674822       -9.1869464837       -3.5067143576  IM1       213             0.0000000000
     10322       483  IM1       DN1             3.6702551572       -9.1827907180       -3.4988866140  IM1       213             0.0000000000
     10323       483  IM1       C2              2.5368370784       -8.5490118969       -4.0021469293  IM1       213             0.0000000000
     10324       483  IM1       DC2             2.5611971060       -8.5427457066       -3.9820355996  IM1       213             0.0000000000
     10325       483  IM1       H4              1.9316914119       -7.8610998286       -3.4246828970  IM1       213             0.0000000000
     10326       483  IM1       C3              2.3294843785       -9.0748204686       -5.2401937548  IM1       213             0.0000000000
     10327       483  IM1       DC3             2.3296595107       -9.0500392297       -5.2337710518  IM1       213             0.0000000000
     10328       483  IM1       H5              1.5154508447       -8.9182312252       -5.9371286260  IM1       213             0.0000000000
     10329       483  IM1       C4              4.0950625866      -10.0502076081       -4.4530582962  IM1       213             0.0000000000
     10330       483  IM1       DC4             4.1032462312      -10.0313707961       -4.4404724026  IM1       213             0.0000000000
     10331       483  IM1       H6              4.9542549518      -10.7075147679       -4.3195076421  IM1       213             0.0000000000
     10332       483  IM1       N2              3.3264272440       -9.9905344889       -5.5346646771  IM1       213             0.0000000000
     10333       483  IM1       DN2             3.3321679991       -9.9743256570       -5.5288644542  IM1       213             0.0000000000
     10334       483  IM1       H7              3.4037009435      -10.5565993228       -6.3553956801  IM1       213             0.0000000000
     10335       483  IM1       LPN21           3.3683195342      -10.1474733130       -5.7868852978  IM1       213             0.0000000000
     10336       484  IM1       C1             -4.2176286506       -3.1518171675       11.2387445756  IM1       214             0.0000000000
     10337       484  IM1       DC1            -4.2078266226       -3.1762366320       11.2362913684  IM1       214             0.0000000000
     10338       484  IM1       H1             -3.9018989802       -3.2841661198       10.1818058209  IM1       214             0.0000000000
     10339       484  IM1       H2             -3.8135074246       -2.1930552774       11.6283375335  IM1       214             0.0000000000
     10340       484  IM1       H3             -5.3266260393       -3.1299122701       11.3017205117  IM1       214             0.0000000000
     10341       484  IM1       N1             -3.7265270322       -4.2323681471       12.0318774212  IM1       214             0.0000000000
     10342       484  IM1       DN1            -3.7094736715       -4.2614708176       12.0322980899  IM1       214             0.0000000000
     10343       484  IM1       C2             -3.0093220936       -5.3177557684       11.5726940178  IM1       214             0.0000000000
     10344       484  IM1       DC2            -2.9861040168       -5.3262873278       11.5680891502  IM1       214             0.0000000000
     10345       484  IM1       H4             -2.8025158706       -5.4868958199       10.5231646808  IM1       214             0.0000000000
     10346       484  IM1       C3             -2.7672214288       -6.0858866835       12.6664839938  IM1       214             0.0000000000
     10347       484  IM1       DC3            -2.7257332148       -6.1026150148       12.6683175591  IM1       214             0.0000000000
     10348       484  IM1       H5             -2.2923799566       -7.0556598970       12.7498775829  IM1       214             0.0000000000
     10349       484  IM1       C4             -3.8794590054       -4.3698962822       13.3724641220  IM1       214             0.0000000000
     10350       484  IM1       DC4            -3.8654827408       -4.3721035121       13.3488383161  IM1       214             0.0000000000
     10351       484  IM1       H6             -4.4131441295       -3.6505704561       13.9936328142  IM1       214             0.0000000000
     10352       484  IM1       N2             -3.2737710310       -5.4791793717       13.7954396256  IM1       214             0.0000000000
     10353       484  IM1       DN2            -3.2573198968       -5.4846237710       13.7776570545  IM1       214             0.0000000000
     10354       484  IM1       H7             -3.2444355597       -5.8173518007       14.7360664583  IM1       214             0.0000000000
     10355       484  IM1       LPN21          -3.2555996310       -5.5713930962       14.0803368514  IM1       214             0.0000000000
     10356       485  IM1       C1             23.4320746470        1.3662573561      -14.1534680864  IM1       215             0.0000000000
     10357       485  IM1       DC1            23.3993754221        1.3806000637      -14.1596722630  IM1       215             0.0000000000
     10358       485  IM1       H1             22.9505472472        0.5744956064      -14.7663022361  IM1       215             0.0000000000
     10359       485  IM1       H2             23.9914050701        2.0577507770      -14.8192813666  IM1       215             0.0000000000
     10360       485  IM1       H3             22.6674519092        1.9080789940      -13.5567249422  IM1       215             0.0000000000
     10361       485  IM1       N1             24.3578015686        0.7795953659      -13.2481118526  IM1       215             0.0000000000
     10362       485  IM1       DN1            24.3380913429        0.8114554558      -13.2565909483  IM1       215             0.0000000000
     10363       485  IM1       C2             24.6117338464       -0.5603936424      -13.1483459655  IM1       215             0.0000000000
     10364       485  IM1       DC2            24.5776045310       -0.5150848614      -13.1599600950  IM1       215             0.0000000000
     10365       485  IM1       H4             24.1427339679       -1.3154150427      -13.7671115114  IM1       215             0.0000000000
     10366       485  IM1       C3             25.5613961542       -0.6910179337      -12.1824692789  IM1       215             0.0000000000
     10367       485  IM1       DC3            25.5418839046       -0.6807438871      -12.2008467434  IM1       215             0.0000000000
     10368       485  IM1       H5             26.0386448708       -1.5790708994      -11.7868879440  IM1       215             0.0000000000
     10369       485  IM1       C4             25.1423097710        1.4213334211      -12.3480457104  IM1       215             0.0000000000
     10370       485  IM1       DC4            25.1239256587        1.4214291620      -12.3599504977  IM1       215             0.0000000000
     10371       485  IM1       H6             25.1510111859        2.5012756914      -12.2005703596  IM1       215             0.0000000000
     10372       485  IM1       N2             25.8881113448        0.5543121909      -11.6788652891  IM1       215             0.0000000000
     10373       485  IM1       DN2            25.8802263902        0.5555734073      -11.6809600488  IM1       215             0.0000000000
     10374       485  IM1       H7             26.5460782219        0.7529346270      -10.9524847301  IM1       215             0.0000000000
     10375       485  IM1       LPN21          26.0850535861        0.6238344810      -11.4635041859  IM1       215             0.0000000000
     10376       486  IM1       C1             26.6705195480        7.5879224378        7.2939073289  IM1       216             0.0000000000
     10377       486  IM1       DC1            26.6681823673        7.5897543611        7.2855390845  IM1       216             0.0000000000
     10378       486  IM1       H1             27.3775486254        8.4424199024        7.3592140537  IM1       216             0.0000000000
     10379       486  IM1       H2             25.6521591913        7.9346860998        7.5714287633  IM1       216             0.0000000000
     10380       486  IM1       H3             26.6770027617        7.1812926961        6.2600160288  IM1       216             0.0000000000
     10381       486  IM1       N1             27.0701884874        6.5546028718        8.1992424172  IM1       216             0.0000000000
     10382       486  IM1       DN1            27.0526213687        6.5519068920        8.1864075916  IM1       216             0.0000000000
     10383       486  IM1       C2             28.1868983127        6.5752480398        9.0025458611  IM1       216             0.0000000000
     10384       486  IM1       DC2            28.1613655228        6.5798494856        8.9739594645  IM1       216             0.0000000000
     10385       486  IM1       H4             28.8851573247        7.4010371788        9.0608180697  IM1       216             0.0000000000
     10386       486  IM1       C3             28.1780406113        5.3977162387        9.6856091467  IM1       216             0.0000000000
     10387       486  IM1       DC3            28.1741360882        5.3999495421        9.6746875987  IM1       216             0.0000000000
     10388       486  IM1       H5             28.8704786150        5.0205945040       10.4280361186  IM1       216             0.0000000000
     10389       486  IM1       C4             26.4283646795        5.3783743288        8.4093114658  IM1       216             0.0000000000
     10390       486  IM1       DC4            26.4290771819        5.3881170477        8.4002159343  IM1       216             0.0000000000
     10391       486  IM1       H6             25.5045463948        5.0906582977        7.9074357216  IM1       216             0.0000000000
     10392       486  IM1       N2             27.0760024160        4.6451645969        9.3090476470  IM1       216             0.0000000000
     10393       486  IM1       DN2            27.0729312357        4.6446610362        9.3049082876  IM1       216             0.0000000000
     10394       486  IM1       H7             26.8140524446        3.7422196643        9.6497420307  IM1       216             0.0000000000
     10395       486  IM1       LPN21          26.9928089654        4.3732834652        9.4047529236  IM1       216             0.0000000000
     10396       487  IM1       C1             16.9022790053        5.6739388552       18.7509915793  IM1       217             0.0000000000
     10397       487  IM1       DC1            16.9037558056        5.7065649109       18.7733862416  IM1       217             0.0000000000
     10398       487  IM1       H1             15.9524734464        6.2502984579       18.7510924095  IM1       217             0.0000000000
     10399       487  IM1       H2             16.8722088535        4.8911163254       19.5387768760  IM1       217             0.0000000000
     10400       487  IM1       H3             17.0319837543        5.1914904500       17.7586503001  IM1       217             0.0000000000
     10401       487  IM1       N1             18.0125127686        6.5459453915       18.9957865109  IM1       217             0.0000000000
     10402       487  IM1       DN1            18.0181319400        6.5584853317       19.0010332889  IM1       217             0.0000000000
     10403       487  IM1       C2             17.9383501430        7.8704239859       19.3730645622  IM1       217             0.0000000000
     10404       487  IM1       DC2            17.9348783160        7.8600828074       19.3783515965  IM1       217             0.0000000000
     10405       487  IM1       H4             17.0126731590        8.4235786746       19.4732195008  IM1       217             0.0000000000
     10406       487  IM1       C3             19.2182261219        8.3097366723       19.4688003053  IM1       217             0.0000000000
     10407       487  IM1       DC3            19.2239224563        8.3035199300       19.4799282636  IM1       217             0.0000000000
     10408       487  IM1       H5             19.6052005895        9.2946837093       19.6990590635  IM1       217             0.0000000000
     10409       487  IM1       C4             19.3227231484        6.2194107538       18.8898689150  IM1       217             0.0000000000
     10410       487  IM1       DC4            19.3071890872        6.2364482537       18.9031811357  IM1       217             0.0000000000
     10411       487  IM1       H6             19.6783415280        5.2242179102       18.6229854721  IM1       217             0.0000000000
     10412       487  IM1       N2             20.0881317208        7.2765608480       19.1626639665  IM1       217             0.0000000000
     10413       487  IM1       DN2            20.0964760496        7.2897924420       19.1528720868  IM1       217             0.0000000000
     10414       487  IM1       H7             21.0877498454        7.3024631172       19.1722908823  IM1       217             0.0000000000
     10415       487  IM1       LPN21          20.3880376258        7.2809070915       19.1565354830  IM1       217             0.0000000000
     10416       488  IM1       C1             -0.6192008788        8.8882229922       12.4748837496  IM1       218             0.0000000000
     10417       488  IM1       DC1            -0.6180048885        8.8811680281       12.4873031580  IM1       218             0.0000000000
     10418       488  IM1       H1             -0.9736470912        7.8391974025       12.5656262125  IM1       218             0.0000000000
     10419       488  IM1       H2              0.4903588681        8.9086910221       12.4221653492  IM1       218             0.0000000000
     10420       488  IM1       H3             -1.0491092245        9.3460447052       11.5584236611  IM1       218             0.0000000000
     10421       488  IM1       N1             -1.0447413818        9.6494569967       13.6118279589  IM1       218             0.0000000000
     10422       488  IM1       DN1            -1.0416639040        9.6552618694       13.6147122666  IM1       218             0.0000000000
     10423       488  IM1       C2             -1.7003668343        9.1659303183       14.7256795657  IM1       218             0.0000000000
     10424       488  IM1       DC2            -1.6823482520        9.1707462726       14.7140013634  IM1       218             0.0000000000
     10425       488  IM1       H4             -2.0171265915        8.1367641932       14.8413054415  IM1       218             0.0000000000
     10426       488  IM1       C3             -1.8757844474       10.2343404966       15.5519905256  IM1       218             0.0000000000
     10427       488  IM1       DC3            -1.8592634745       10.2313157505       15.5611515652  IM1       218             0.0000000000
     10428       488  IM1       H5             -2.3546560308       10.2996453191       16.5211686767  IM1       218             0.0000000000
     10429       488  IM1       C4             -0.8434309224       10.9765304495       13.7932243115  IM1       218             0.0000000000
     10430       488  IM1       DC4            -0.8397314230       10.9596213058       13.8003736433  IM1       218             0.0000000000
     10431       488  IM1       H6             -0.3243817573       11.6122916114       13.0759407489  IM1       218             0.0000000000
     10432       488  IM1       N2             -1.3151781772       11.3616792258       14.9794112276  IM1       218             0.0000000000
     10433       488  IM1       DN2            -1.3063626180       11.3581767147       14.9859155450  IM1       218             0.0000000000
     10434       488  IM1       H7             -1.2819372881       12.2848084818       15.3624613811  IM1       218             0.0000000000
     10435       488  IM1       LPN21          -1.2988452968       11.6392780543       15.0919817719  IM1       218             0.0000000000
     10436       489  IM1       C1             10.0034567184       29.2292264817      -13.0402256765  IM1       219             0.0000000000
     10437       489  IM1       DC1            10.0091121840       29.2197808243      -13.0417586131  IM1       219             0.0000000000
     10438       489  IM1       H1              9.8138427037       29.3136876275      -11.9487890822  IM1       219             0.0000000000
     10439       489  IM1       H2             10.7462319974       29.9970303844      -13.3453208278  IM1       219             0.0000000000
     10440       489  IM1       H3             10.3738377617       28.2068857599      -13.2681693782  IM1       219             0.0000000000
     10441       489  IM1       N1              8.7912336504       29.4505981523      -13.7664962580  IM1       219             0.0000000000
     10442       489  IM1       DN1             8.8047281949       29.4448861551      -13.7743227287  IM1       219             0.0000000000
     10443       489  IM1       C2              7.5647318295       29.7315949687      -13.2121970711  IM1       219             0.0000000000
     10444       489  IM1       DC2             7.5987502013       29.7259272836      -13.2117155084  IM1       219             0.0000000000
     10445       489  IM1       H4              7.3838963424       29.8086141918      -12.1471827200  IM1       219             0.0000000000
     10446       489  IM1       C3              6.6972825202       29.8466053690      -14.2570202527  IM1       219             0.0000000000
     10447       489  IM1       DC3             6.7068417529       29.8444155049      -14.2417461013  IM1       219             0.0000000000
     10448       489  IM1       H5              5.6330414422       30.0472819823      -14.2599912645  IM1       219             0.0000000000
     10449       489  IM1       C4              8.6369843488       29.4063689902      -15.1129442287  IM1       219             0.0000000000
     10450       489  IM1       DC4             8.6508917320       29.3973673595      -15.1002536623  IM1       219             0.0000000000
     10451       489  IM1       H6              9.4486041520       29.2158930940      -15.8151494894  IM1       219             0.0000000000
     10452       489  IM1       N2              7.3724642156       29.6398940571      -15.4459063074  IM1       219             0.0000000000
     10453       489  IM1       DN2             7.3803267918       29.6390068065      -15.4296565838  IM1       219             0.0000000000
     10454       489  IM1       H7              6.9887486817       29.6631153983      -16.3690656427  IM1       219             0.0000000000
     10455       489  IM1       LPN21           7.2641906245       29.6448117858      -15.7256430504  IM1       219             0.0000000000
     10456       490  IM1       C1              1.6709960197       14.7331028876       23.6939240971  IM1       220             0.0000000000
     10457       490  IM1       DC1             1.6869040645       14.7033279793       23.7072451219  IM1       220             0.0000000000
     10458       490  IM1       H1              0.9566934351       13.8891230759       23.5853382092  IM1       220             0.0000000000
     10459       490  IM1       H2              1.7119678702       15.3054959567       22.7426047587  IM1       220             0.0000000000
     10460       490  IM1       H3              1.3368187871       15.3986296103       24.5183758901  IM1       220             0.0000000000
     10461       490  IM1       N1              2.9734010838       14.2336102217       23.9951401247  IM1       220             0.0000000000
     10462       490  IM1       DN1             2.9930987126       14.2147006537       24.0066556927  IM1       220             0.0000000000
     10463       490  IM1       C2              3.3165853742       12.9045078126       24.0982248195  IM1       220             0.0000000000
     10464       490  IM1       DC2             3.3191824315       12.8977551543       24.1128326637  IM1       220             0.0000000000
     10465       490  IM1       H4              2.6144043685       12.0911582816       23.9629718138  IM1       220             0.0000000000
     10466       490  IM1       C3              4.6574990706       12.8783189903       24.3124596568  IM1       220             0.0000000000
     10467       490  IM1       DC3             4.6777604235       12.8702670819       24.3400106460  IM1       220             0.0000000000
     10468       490  IM1       H5              5.3322758119       12.0354094953       24.3965366006  IM1       220             0.0000000000
     10469       490  IM1       C4              4.0975530287       14.9677378914       24.1799700702  IM1       220             0.0000000000
     10470       490  IM1       DC4             4.0945163090       14.9442393776       24.1884194429  IM1       220             0.0000000000
     10471       490  IM1       H6              4.1270967054       16.0545165502       24.1016162701  IM1       220             0.0000000000
     10472       490  IM1       N2              5.1431140866       14.1682670085       24.4070125125  IM1       220             0.0000000000
     10473       490  IM1       DN2             5.1542590716       14.1583196058       24.4270696410  IM1       220             0.0000000000
     10474       490  IM1       H7              6.0952486528       14.4521112512       24.5204682906  IM1       220             0.0000000000
     10475       490  IM1       LPN21           5.4232497488       14.2580568898       24.4658494732  IM1       220             0.0000000000
     10476       491  IM1       C1             -3.5630355724        2.8083063771        4.6755257546  IM1       221             0.0000000000
     10477       491  IM1       DC1            -3.5494034222        2.7976310779        4.6653031840  IM1       221             0.0000000000
     10478       491  IM1       H1             -3.3091545297        3.8326962334        5.0226436573  IM1       221             0.0000000000
     10479       491  IM1       H2             -4.6669481823        2.7139153529        4.5931346973  IM1       221             0.0000000000
     10480       491  IM1       H3             -3.0853555426        2.6333527135        3.6878345047  IM1       221             0.0000000000
     10481       491  IM1       N1             -3.0764284180        1.8394519171        5.6180160756  IM1       221             0.0000000000
     10482       491  IM1       DN1            -3.0829969524        1.8181635204        5.5914371197  IM1       221             0.0000000000
     10483       491  IM1       C2             -2.2779003052        2.1038450693        6.7071659107  IM1       221             0.0000000000
     10484       491  IM1       DC2            -2.2990347438        2.0904065403        6.6632373768  IM1       221             0.0000000000
     10485       491  IM1       H4             -2.0246384537        3.0984321016        7.0529173673  IM1       221             0.0000000000
     10486       491  IM1       C3             -1.9729089228        0.8949635543        7.2561770180  IM1       221             0.0000000000
     10487       491  IM1       DC3            -1.9784373013        0.8786070492        7.2380484791  IM1       221             0.0000000000
     10488       491  IM1       H5             -1.4325747778        0.6649692961        8.1661389144  IM1       221             0.0000000000
     10489       491  IM1       C4             -3.2195091822        0.4935202142        5.5304913778  IM1       221             0.0000000000
     10490       491  IM1       DC4            -3.2032835312        0.4960102642        5.5048683436  IM1       221             0.0000000000
     10491       491  IM1       H6             -3.8362846858        0.0022470010        4.7779366558  IM1       221             0.0000000000
     10492       491  IM1       N2             -2.5457202856       -0.1182959448        6.5034799104  IM1       221             0.0000000000
     10493       491  IM1       DN2            -2.5402671649       -0.1317412923        6.4932762689  IM1       221             0.0000000000
     10494       491  IM1       H7             -2.5346536370       -1.0991468190        6.6979255116  IM1       221             0.0000000000
     10495       491  IM1       LPN21          -2.5273133093       -0.4150226031        6.5436604215  IM1       221             0.0000000000
     10496       492  IM1       C1             -9.2134989714       26.1537601434      -13.2739021420  IM1       222             0.0000000000
     10497       492  IM1       DC1            -9.1888293245       26.1637891752      -13.2756893303  IM1       222             0.0000000000
     10498       492  IM1       H1             -8.1643800163       26.5193674635      -13.2725958876  IM1       222             0.0000000000
     10499       492  IM1       H2             -9.7229779428       26.4936066595      -12.3469412349  IM1       222             0.0000000000
     10500       492  IM1       H3             -9.7487989848       26.5463071876      -14.1647903029  IM1       222             0.0000000000
     10501       492  IM1       N1             -9.2391028723       24.7185002470      -13.3153536977  IM1       222             0.0000000000
     10502       492  IM1       DN1            -9.2193754565       24.7149928541      -13.3253897096  IM1       222             0.0000000000
     10503       492  IM1       C2             -8.1543513829       23.8918846182      -13.1240309220  IM1       222             0.0000000000
     10504       492  IM1       DC2            -8.1194040578       23.9126870603      -13.1323785975  IM1       222             0.0000000000
     10505       492  IM1       H4             -7.1493780358       24.2514843584      -12.9407126239  IM1       222             0.0000000000
     10506       492  IM1       C3             -8.6523426947       22.6239030985      -13.1510215391  IM1       222             0.0000000000
     10507       492  IM1       DC3            -8.6429736965       22.6332022410      -13.1679361922  IM1       222             0.0000000000
     10508       492  IM1       H5             -8.1613983823       21.6774489025      -12.9610553922  IM1       222             0.0000000000
     10509       492  IM1       C4            -10.3379604304       23.9315741358      -13.4681298878  IM1       222             0.0000000000
     10510       492  IM1       DC4           -10.3089888995       23.9319258290      -13.4757786450  IM1       222             0.0000000000
     10511       492  IM1       H6            -11.3471080257       24.3305128255      -13.5709357858  IM1       222             0.0000000000
     10512       492  IM1       N2            -10.0098191199       22.6402706085      -13.4045341114  IM1       222             0.0000000000
     10513       492  IM1       DN2           -10.0022241673       22.6243602777      -13.4166173016  IM1       222             0.0000000000
     10514       492  IM1       H7            -10.6384624434       21.8627949264      -13.4229497453  IM1       222             0.0000000000
     10515       492  IM1       LPN21         -10.1970602075       22.4084360023      -13.4390810436  IM1       222             0.0000000000
     10516       493  IM1       C1            -13.9581610222       14.5935601344        9.0719728545  IM1       223             0.0000000000
     10517       493  IM1       DC1           -13.9594780823       14.5930374238        9.0591696319  IM1       223             0.0000000000
     10518       493  IM1       H1            -14.1811919962       13.9052499212        8.2288790072  IM1       223             0.0000000000
     10519       493  IM1       H2            -14.0195710676       15.6456703080        8.7203850419  IM1       223             0.0000000000
     10520       493  IM1       H3            -14.6850904882       14.4214075115        9.8943219445  IM1       223             0.0000000000
     10521       493  IM1       N1            -12.6449307001       14.3538065259        9.5704992790  IM1       223             0.0000000000
     10522       493  IM1       DN1           -12.6527400215       14.3659796191        9.5752707405  IM1       223             0.0000000000
     10523       493  IM1       C2            -11.6746342137       13.5636205501        9.0057760537  IM1       223             0.0000000000
     10524       493  IM1       DC2           -11.7035159919       13.5833403297        9.0016182245  IM1       223             0.0000000000
     10525       493  IM1       H4            -11.8345174161       12.8947311271        8.1691678411  IM1       223             0.0000000000
     10526       493  IM1       C3            -10.5484821366       13.7540855874        9.7539918836  IM1       223             0.0000000000
     10527       493  IM1       DC3           -10.5597247199       13.7696747609        9.7467160343  IM1       223             0.0000000000
     10528       493  IM1       H5             -9.5767135858       13.2813881093        9.6824937863  IM1       223             0.0000000000
     10529       493  IM1       C4            -12.0928267820       14.9889191765       10.6245307648  IM1       223             0.0000000000
     10530       493  IM1       DC4           -12.1053419857       14.9866317464       10.6204218091  IM1       223             0.0000000000
     10531       493  IM1       H6            -12.6337832172       15.7162264598       11.2299151476  IM1       223             0.0000000000
     10532       493  IM1       N2            -10.8136406436       14.6544855059       10.7708652867  IM1       223             0.0000000000
     10533       493  IM1       DN2           -10.8121599142       14.6609731985       10.7714605969  IM1       223             0.0000000000
     10534       493  IM1       H7            -10.1874847295       14.9790147368       11.4798148969  IM1       223             0.0000000000
     10535       493  IM1       LPN21         -10.6285997600       14.7578145174       10.9831928327  IM1       223             0.0000000000
     10536       494  IM1       C1              7.5597660128       -3.2016162820       25.6353780930  IM1       224             0.0000000000
     10537       494  IM1       DC1             7.5814676969       -3.1684748332       25.6401085660  IM1       224             0.0000000000
     10538       494  IM1       H1              8.5149923020       -2.7354373002       25.9587059350  IM1       224             0.0000000000
     10539       494  IM1       H2              7.2206740853       -3.9244858497       26.4079046327  IM1       224             0.0000000000
     10540       494  IM1       H3              6.7870380138       -2.4192630673       25.4768350781  IM1       224             0.0000000000
     10541       494  IM1       N1              7.7475899027       -3.9161498805       24.4070986810  IM1       224             0.0000000000
     10542       494  IM1       DN1             7.7566425375       -3.9005257875       24.4119339840  IM1       224             0.0000000000
     10543       494  IM1       C2              8.9179561169       -4.0054251041       23.6804362726  IM1       224             0.0000000000
     10544       494  IM1       DC2             8.9127892516       -3.9848185708       23.6948682743  IM1       224             0.0000000000
     10545       494  IM1       H4              9.8712819277       -3.5906975022       23.9838500440  IM1       224             0.0000000000
     10546       494  IM1       C3              8.6268381325       -4.7637067160       22.5896877657  IM1       224             0.0000000000
     10547       494  IM1       DC3             8.6442706294       -4.7565424130       22.5895251659  IM1       224             0.0000000000
     10548       494  IM1       H5              9.2682424594       -5.1044243321       21.7863192354  IM1       224             0.0000000000
     10549       494  IM1       C4              6.7945900661       -4.6154061155       23.7419993394  IM1       224             0.0000000000
     10550       494  IM1       DC4             6.8257143264       -4.5991061692       23.7519526709  IM1       224             0.0000000000
     10551       494  IM1       H6              5.7649011977       -4.7125741283       24.0860912043  IM1       224             0.0000000000
     10552       494  IM1       N2              7.3028598472       -5.1524758733       22.6314348248  IM1       224             0.0000000000
     10553       494  IM1       DN2             7.3267661522       -5.1517493278       22.6372899111  IM1       224             0.0000000000
     10554       494  IM1       H7              6.8139656700       -5.7174078694       21.9667286313  IM1       224             0.0000000000
     10555       494  IM1       LPN21           7.1529124586       -5.3226141617       22.4350455596  IM1       224             0.0000000000
     10556       495  IM1       C1             15.7423765988       13.0595796654      -13.1638674336  IM1       225             0.0000000000
     10557       495  IM1       DC1            15.7443701923       13.0547799320      -13.1439678467  IM1       225             0.0000000000
     10558       495  IM1       H1             16.7254336592       13.4331355174      -13.5221631806  IM1       225             0.0000000000
     10559       495  IM1       H2             15.5200406068       13.4923466694      -12.1650679409  IM1       225             0.0000000000
     10560       495  IM1       H3             14.9629826778       13.3462712063      -13.9018878102  IM1       225             0.0000000000
     10561       495  IM1       N1             15.7588752001       11.6308219888      -13.0639623217  IM1       225             0.0000000000
     10562       495  IM1       DN1            15.7400699285       11.6158779344      -13.0423103324  IM1       225             0.0000000000
     10563       495  IM1       C2             16.8275552027       10.8252457090      -13.3779824173  IM1       225             0.0000000000
     10564       495  IM1       DC2            16.7952736744       10.8216279814      -13.3574037625  IM1       225             0.0000000000
     10565       495  IM1       H4             17.7728576547       11.2085345559      -13.7418256996  IM1       225             0.0000000000
     10566       495  IM1       C3             16.4001498960        9.5463837616      -13.1980915800  IM1       225             0.0000000000
     10567       495  IM1       DC3            16.3792851080        9.5238081675      -13.1911641068  IM1       225             0.0000000000
     10568       495  IM1       H5             16.9347721414        8.6181238580      -13.3574703974  IM1       225             0.0000000000
     10569       495  IM1       C4             14.7281850932       10.8262989437      -12.6959309468  IM1       225             0.0000000000
     10570       495  IM1       DC4            14.7208699229       10.8162866865      -12.6917278073  IM1       225             0.0000000000
     10571       495  IM1       H6             13.7473637414       11.2059073329      -12.4095973187  IM1       225             0.0000000000
     10572       495  IM1       N2             15.0846707469        9.5409568356      -12.7540093094  IM1       225             0.0000000000
     10573       495  IM1       DN2            15.0675222671        9.5227984917      -12.7432070348  IM1       225             0.0000000000
     10574       495  IM1       H7             14.5169949977        8.7446259275      -12.5451999979  IM1       225             0.0000000000
     10575       495  IM1       LPN21          14.9106600837        9.3068305126      -12.6839725050  IM1       225             0.0000000000
     10576       496  IM1       C1              8.7860229090        5.4315844348      -16.7175241904  IM1       226             0.0000000000
     10577       496  IM1       DC1             8.8059849416        5.4181565217      -16.7275839323  IM1       226             0.0000000000
     10578       496  IM1       H1              8.7858337848        4.5100266458      -16.0969984405  IM1       226             0.0000000000
     10579       496  IM1       H2              7.7400802937        5.6710668963      -17.0055748737  IM1       226             0.0000000000
     10580       496  IM1       H3              9.2166223066        6.2763211979      -16.1384516894  IM1       226             0.0000000000
     10581       496  IM1       N1              9.5665496526        5.2305898398      -17.9024454649  IM1       226             0.0000000000
     10582       496  IM1       DN1             9.5760809896        5.2303376728      -17.9169792058  IM1       226             0.0000000000
     10583       496  IM1       C2             10.3097006120        4.1121747369      -18.2186768801  IM1       226             0.0000000000
     10584       496  IM1       DC2            10.3123042094        4.1215663286      -18.2000991426  IM1       226             0.0000000000
     10585       496  IM1       H4             10.3647220878        3.2237942933      -17.6017151091  IM1       226             0.0000000000
     10586       496  IM1       C3             10.8722157654        4.3666477638      -19.4337021143  IM1       226             0.0000000000
     10587       496  IM1       DC3            10.8656846152        4.3758320235      -19.4334362584  IM1       226             0.0000000000
     10588       496  IM1       H5             11.5099483384        3.7429175242      -20.0478248655  IM1       226             0.0000000000
     10589       496  IM1       C4              9.6997056124        6.1172461878      -18.9190994156  IM1       226             0.0000000000
     10590       496  IM1       DC4             9.6999478798        6.1040502893      -18.9191079692  IM1       226             0.0000000000
     10591       496  IM1       H6              9.2052960487        7.0885960074      -18.9308769910  IM1       226             0.0000000000
     10592       496  IM1       N2             10.4842952266        5.6221425733      -19.8762701157  IM1       226             0.0000000000
     10593       496  IM1       DN2            10.4846037547        5.6237772558      -19.8926770166  IM1       226             0.0000000000
     10594       496  IM1       H7             10.7266702530        6.0639992067      -20.7399929080  IM1       226             0.0000000000
     10595       496  IM1       LPN21          10.5567576157        5.7611453071      -20.1320580008  IM1       226             0.0000000000
     10596       497  IM1       C1              0.3532926286      -15.4449558645       23.8335310563  IM1       227             0.0000000000
     10597       497  IM1       DC1             0.3766835819      -15.4303524809       23.8300473533  IM1       227             0.0000000000
     10598       497  IM1       H1              1.1819943453      -14.7472824033       23.5869013585  IM1       227             0.0000000000
     10599       497  IM1       H2              0.7529683076      -16.3225809401       24.3852144611  IM1       227             0.0000000000
     10600       497  IM1       H3             -0.4059540653      -14.9201885357       24.4519845374  IM1       227             0.0000000000
     10601       497  IM1       N1             -0.2719843402      -15.9054312737       22.6336557032  IM1       227             0.0000000000
     10602       497  IM1       DN1            -0.2604632252      -15.9070943073       22.6330439350  IM1       227             0.0000000000
     10603       497  IM1       C2              0.2145273169      -15.7125680180       21.3587646440  IM1       227             0.0000000000
     10604       497  IM1       DC2             0.2417598297      -15.7077291137       21.3713580367  IM1       227             0.0000000000
     10605       497  IM1       H4              1.0312492829      -15.0412560500       21.1238296061  IM1       227             0.0000000000
     10606       497  IM1       C3             -0.5792388196      -16.4597206769       20.5435100293  IM1       227             0.0000000000
     10607       497  IM1       DC3            -0.5599841866      -16.4537631908       20.5392403846  IM1       227             0.0000000000
     10608       497  IM1       H5             -0.5653310776      -16.5723312829       19.4664703707  IM1       227             0.0000000000
     10609       497  IM1       C4             -1.3201834178      -16.7647022769       22.5558939574  IM1       227             0.0000000000
     10610       497  IM1       DC4            -1.2968853878      -16.7540638454       22.5558567773  IM1       227             0.0000000000
     10611       497  IM1       H6             -1.8664189431      -17.1342371042       23.4237480709  IM1       227             0.0000000000
     10612       497  IM1       N2             -1.5324231892      -17.1254267149       21.2928051464  IM1       227             0.0000000000
     10613       497  IM1       DN2            -1.5219493062      -17.1185615615       21.2864816990  IM1       227             0.0000000000
     10614       497  IM1       H7             -2.2382888453      -17.7513482524       20.9611789940  IM1       227             0.0000000000
     10615       497  IM1       LPN21          -1.7461776993      -17.3136795145       21.1986250378  IM1       227             0.0000000000
     10616       498  IM1       C1             -9.3970617437       26.6128968462      -19.0732910008  IM1       228             0.0000000000
     10617       498  IM1       DC1            -9.3951536290       26.6117523183      -19.0576999521  IM1       228             0.0000000000
     10618       498  IM1       H1             -8.4743044481       26.1355121022      -19.4669199900  IM1       228             0.0000000000
     10619       498  IM1       H2             -9.1986073562       27.6797728250      -18.8351471329  IM1       228             0.0000000000
     10620       498  IM1       H3            -10.2006402066       26.5244690490      -19.8353691989  IM1       228             0.0000000000
     10621       498  IM1       N1             -9.8242853574       25.9444105153      -17.8895609803  IM1       228             0.0000000000
     10622       498  IM1       DN1            -9.8379061830       25.9539486279      -17.8780737079  IM1       228             0.0000000000
     10623       498  IM1       C2             -9.3001176766       24.7634197899      -17.4259140363  IM1       228             0.0000000000
     10624       498  IM1       DC2            -9.3027729269       24.7927770540      -17.4327846203  IM1       228             0.0000000000
     10625       498  IM1       H4             -8.4288045913       24.2686633389      -17.8369110699  IM1       228             0.0000000000
     10626       498  IM1       C3            -10.1008249752       24.3825999477      -16.4034572862  IM1       228             0.0000000000
     10627       498  IM1       DC3           -10.1048315750       24.4013058823      -16.4028674385  IM1       228             0.0000000000
     10628       498  IM1       H5            -10.0370118856       23.4893340518      -15.7944474926  IM1       228             0.0000000000
     10629       498  IM1       C4            -10.9089923070       26.2503074573      -17.1321243896  IM1       228             0.0000000000
     10630       498  IM1       DC4           -10.9090844273       26.2550198503      -17.1341180105  IM1       228             0.0000000000
     10631       498  IM1       H6            -11.5382250365       27.1248473220      -17.2974912461  IM1       228             0.0000000000
     10632       498  IM1       N2            -11.0968589146       25.3276851301      -16.1952283899  IM1       228             0.0000000000
     10633       498  IM1       DN2           -11.0988782686       25.3350030426      -16.1866158834  IM1       228             0.0000000000
     10634       498  IM1       H7            -11.8153229868       25.3125727986      -15.4998285090  IM1       228             0.0000000000
     10635       498  IM1       LPN21         -11.3124906248       25.3318213624      -15.9866957615  IM1       228             0.0000000000
     10636       499  IM1       C1             -2.4690667616      -10.3077335750       -2.5482440394  IM1       229             0.0000000000
     10637       499  IM1       DC1            -2.4684291671      -10.2468590994       -2.5473425815  IM1       229             0.0000000000
     10638       499  IM1       H1             -2.7284055444       -9.2555311197       -2.3034290259  IM1       229             0.0000000000
     10639       499  IM1       H2             -2.9707491417      -11.0004631214       -1.8391872253  IM1       229             0.0000000000
     10640       499  IM1       H3             -2.7892756051      -10.5653154414       -3.5804450269  IM1       229             0.0000000000
     10641       499  IM1       N1             -1.0572024823      -10.5143108555       -2.4340590644  IM1       229             0.0000000000
     10642       499  IM1       DN1            -1.0503201001      -10.4713088424       -2.4268667856  IM1       229             0.0000000000
     10643       499  IM1       C2             -0.1530508333       -9.6638170160       -1.8297717893  IM1       229             0.0000000000
     10644       499  IM1       DC2            -0.1592499199       -9.6259201995       -1.8308297411  IM1       229             0.0000000000
     10645       499  IM1       H4             -0.3763144254       -8.6641043775       -1.4781796834  IM1       229             0.0000000000
     10646       499  IM1       C3              1.0150635596      -10.3582350788       -1.7589908543  IM1       229             0.0000000000
     10647       499  IM1       DC3             1.0297467631      -10.3289931677       -1.7482366198  IM1       229             0.0000000000
     10648       499  IM1       H5              1.9839721520      -10.0694755508       -1.3707601566  IM1       229             0.0000000000
     10649       499  IM1       C4             -0.4132417395      -11.6725072692       -2.7088521221  IM1       229             0.0000000000
     10650       499  IM1       DC4            -0.4116892802      -11.6105889520       -2.6911665636  IM1       229             0.0000000000
     10651       499  IM1       H6             -0.8997842286      -12.5297817146       -3.1741014441  IM1       229             0.0000000000
     10652       499  IM1       N2              0.8611445836      -11.6029412588       -2.3126134485  IM1       229             0.0000000000
     10653       499  IM1       DN2             0.8721795513      -11.5680040922       -2.2951068676  IM1       229             0.0000000000
     10654       499  IM1       H7              1.5446280798      -12.3273146974       -2.4027989889  IM1       229             0.0000000000
     10655       499  IM1       LPN21           1.0671644275      -11.8190819427       -2.3415794401  IM1       229             0.0000000000
     10656       500  IM1       C1            -23.7721977709       -2.4141806006       27.4691178406  IM1       230             0.0000000000
     10657       500  IM1       DC1           -23.7676707424       -2.4106610165       27.4481877783  IM1       230             0.0000000000
     10658       500  IM1       H1            -22.8996644916       -1.7621798996       27.6879825531  IM1       230             0.0000000000
     10659       500  IM1       H2            -24.4360747051       -2.4401232987       28.3595758099  IM1       230             0.0000000000
     10660       500  IM1       H3            -24.3301861156       -2.0376294667       26.5852743865  IM1       230             0.0000000000
     10661       500  IM1       N1            -23.3241386214       -3.7393380618       27.2034062936  IM1       230             0.0000000000
     10662       500  IM1       DN1           -23.3500722044       -3.7417622657       27.1880961919  IM1       230             0.0000000000
     10663       500  IM1       C2            -22.0244712317       -4.1825095995       27.2525202918  IM1       230             0.0000000000
     10664       500  IM1       DC2           -22.0657913723       -4.1607780059       27.2408791263  IM1       230             0.0000000000
     10665       500  IM1       H4            -21.1650179159       -3.5493240658       27.4350170837  IM1       230             0.0000000000
     10666       500  IM1       C3            -22.0796609495       -5.5262939160       27.0402773112  IM1       230             0.0000000000
     10667       500  IM1       DC3           -22.0970873968       -5.5150774171       27.0350276899  IM1       230             0.0000000000
     10668       500  IM1       H5            -21.2784465285       -6.2516660664       26.9711419735  IM1       230             0.0000000000
     10669       500  IM1       C4            -24.1210464734       -4.8054263207       26.9590089187  IM1       230             0.0000000000
     10670       500  IM1       DC4           -24.1306702297       -4.7968076483       26.9483121728  IM1       230             0.0000000000
     10671       500  IM1       H6            -25.2038890503       -4.7402974348       26.8526595804  IM1       230             0.0000000000
     10672       500  IM1       N2            -23.3998678319       -5.9120457853       26.8502806692  IM1       230             0.0000000000
     10673       500  IM1       DN2           -23.4100890837       -5.9066767305       26.8418971722  IM1       230             0.0000000000
     10674       500  IM1       H7            -23.7338003650       -6.8307400309       26.6393542691  IM1       230             0.0000000000
     10675       500  IM1       LPN21         -23.5097882614       -6.1857523020       26.7954879517  IM1       230             0.0000000000
     10676       501  IM1       C1             16.0879719575      -19.3520131824       23.9863818173  IM1       231             0.0000000000
     10677       501  IM1       DC1            16.0595757372      -19.3383610432       23.9976288472  IM1       231             0.0000000000
     10678       501  IM1       H1             16.5203154620      -18.5483520393       23.3527187671  IM1       231             0.0000000000
     10679       501  IM1       H2             15.5849266634      -20.1021444831       23.3394123700  IM1       231             0.0000000000
     10680       501  IM1       H3             16.9018774945      -19.8388548698       24.5650561200  IM1       231             0.0000000000
     10681       501  IM1       N1             15.1329871683      -18.8037443991       24.8975300644  IM1       231             0.0000000000
     10682       501  IM1       DN1            15.1134755036      -18.8065387736       24.9211614882  IM1       231             0.0000000000
     10683       501  IM1       C2             14.7049930420      -17.4951735709       24.9506631603  IM1       231             0.0000000000
     10684       501  IM1       DC2            14.7044436982      -17.5017592442       24.9450654814  IM1       231             0.0000000000
     10685       501  IM1       H4             15.1076225162      -16.7115807288       24.3207736738  IM1       231             0.0000000000
     10686       501  IM1       C3             13.7812494854      -17.4437156419       25.9457773518  IM1       231             0.0000000000
     10687       501  IM1       DC3            13.7741837866      -17.4497717333       25.9441224014  IM1       231             0.0000000000
     10688       501  IM1       H5             13.2302228573      -16.5981960194       26.3386580249  IM1       231             0.0000000000
     10689       501  IM1       C4             14.4597263658      -19.4990392428       25.8438554525  IM1       231             0.0000000000
     10690       501  IM1       DC4            14.4544495475      -19.5151349697       25.8407689142  IM1       231             0.0000000000
     10691       501  IM1       H6             14.6295813990      -20.5557520453       26.0502708638  IM1       231             0.0000000000
     10692       501  IM1       N2             13.6185899768      -18.7066952974       26.4979718354  IM1       231             0.0000000000
     10693       501  IM1       DN2            13.6184695274      -18.7133666334       26.4952646902  IM1       231             0.0000000000
     10694       501  IM1       H7             13.0260463398      -18.9583442488       27.2631939231  IM1       231             0.0000000000
     10695       501  IM1       LPN21          13.4348051369      -18.7929213311       26.7188523546  IM1       231             0.0000000000
     10696       502  IM1       C1            -28.7771548393      -21.8429911180       18.0295165161  IM1       232             0.0000000000
     10697       502  IM1       DC1           -28.7974886649      -21.8349739379       18.0374606151  IM1       232             0.0000000000
     10698       502  IM1       H1            -29.6875548684      -21.2071059133       17.9957112879  IM1       232             0.0000000000
     10699       502  IM1       H2            -28.8297206220      -22.5393033303       18.8936386958  IM1       232             0.0000000000
     10700       502  IM1       H3            -28.6853330788      -22.4176720388       17.0831383668  IM1       232             0.0000000000
     10701       502  IM1       N1            -27.6141746986      -21.0246178781       18.1765737779  IM1       232             0.0000000000
     10702       502  IM1       DN1           -27.6159357490      -21.0368330367       18.1779626113  IM1       232             0.0000000000
     10703       502  IM1       C2            -27.5832763992      -19.6534606086       18.3191645985  IM1       232             0.0000000000
     10704       502  IM1       DC2           -27.6091262577      -19.6803188747       18.3218338147  IM1       232             0.0000000000
     10705       502  IM1       H4            -28.4541585436      -19.0117217130       18.2679349151  IM1       232             0.0000000000
     10706       502  IM1       C3            -26.2689792738      -19.3244931514       18.4768460465  IM1       232             0.0000000000
     10707       502  IM1       DC3           -26.2907940554      -19.3358566107       18.4822182285  IM1       232             0.0000000000
     10708       502  IM1       H5            -25.7998405579      -18.3552717172       18.5926375769  IM1       232             0.0000000000
     10709       502  IM1       C4            -26.3419374184      -21.4809027226       18.2587672736  IM1       232             0.0000000000
     10710       502  IM1       DC4           -26.3565041054      -21.4798671397       18.2712060616  IM1       232             0.0000000000
     10711       502  IM1       H6            -26.0689821086      -22.5315375045       18.1599646629  IM1       232             0.0000000000
     10712       502  IM1       N2            -25.4975109169      -20.4755709714       18.4615122301  IM1       232             0.0000000000
     10713       502  IM1       DN2           -25.5082638907      -20.4794214275       18.4736939851  IM1       232             0.0000000000
     10714       502  IM1       H7            -24.5020110246      -20.5356573912       18.5347896930  IM1       232             0.0000000000
     10715       502  IM1       LPN21         -25.2007014404      -20.5023940565       18.4959310730  IM1       232             0.0000000000
     10716       503  IM1       C1            -21.6571011660       -9.5026393745      -23.5260972733  IM1       233             0.0000000000
     10717       503  IM1       DC1           -21.6581611604       -9.5104804392      -23.4967072379  IM1       233             0.0000000000
     10718       503  IM1       H1            -21.2169325715      -10.4262591873      -23.0930856667  IM1       233             0.0000000000
     10719       503  IM1       H2            -22.7258865904       -9.4335614312      -23.2307213200  IM1       233             0.0000000000
     10720       503  IM1       H3            -21.0900084933       -8.6097014523      -23.1864080488  IM1       233             0.0000000000
     10721       503  IM1       N1            -21.5873737095       -9.5575219631      -24.9466587187  IM1       233             0.0000000000
     10722       503  IM1       DN1           -21.5918926477       -9.5508554686      -24.9241153003  IM1       233             0.0000000000
     10723       503  IM1       C2            -21.0651623778      -10.5876257686      -25.6938730697  IM1       233             0.0000000000
     10724       503  IM1       DC2           -21.0890905100      -10.5746962758      -25.6678773334  IM1       233             0.0000000000
     10725       503  IM1       H4            -20.5466053081      -11.4430973876      -25.2789563617  IM1       233             0.0000000000
     10726       503  IM1       C3            -21.2563355253      -10.2398618281      -26.9941879246  IM1       233             0.0000000000
     10727       503  IM1       DC3           -21.2555356667      -10.2433430132      -26.9862270808  IM1       233             0.0000000000
     10728       503  IM1       H5            -20.9556141190      -10.7505115615      -27.9006604756  IM1       233             0.0000000000
     10729       503  IM1       C4            -22.0759054747       -8.6285565124      -25.8019704662  IM1       233             0.0000000000
     10730       503  IM1       DC4           -22.0621097740       -8.6425734020      -25.7875884532  IM1       233             0.0000000000
     10731       503  IM1       H6            -22.5692974556       -7.7117009717      -25.4794177255  IM1       233             0.0000000000
     10732       503  IM1       N2            -21.8907320912       -9.0116595091      -27.0617835515  IM1       233             0.0000000000
     10733       503  IM1       DN2           -21.8872532074       -9.0171805344      -27.0579860569  IM1       233             0.0000000000
     10734       503  IM1       H7            -22.1573469585       -8.5095396364      -27.8844573313  IM1       233             0.0000000000
     10735       503  IM1       LPN21         -21.9731039615       -8.8566960939      -27.3050965494  IM1       233             0.0000000000
     10736       504  IM1       C1              0.6185145944        8.0545040929      -20.0680330755  IM1       234             0.0000000000
     10737       504  IM1       DC1             0.6179630826        8.0175485756      -20.0827314715  IM1       234             0.0000000000
     10738       504  IM1       H1              0.6117028942        6.9502279754      -19.9461771811  IM1       234             0.0000000000
     10739       504  IM1       H2              0.6932271220        8.5290367394      -19.0662557518  IM1       234             0.0000000000
     10740       504  IM1       H3              1.4777903790        8.3712711362      -20.6970201710  IM1       234             0.0000000000
     10741       504  IM1       N1             -0.5913035782        8.4940652595      -20.6945260443  IM1       234             0.0000000000
     10742       504  IM1       DN1            -0.5893439157        8.4707449408      -20.7041907985  IM1       234             0.0000000000
     10743       504  IM1       C2             -1.6983399937        7.7289257631      -20.9938763398  IM1       234             0.0000000000
     10744       504  IM1       DC2            -1.6708770278        7.6827799910      -20.9870176097  IM1       234             0.0000000000
     10745       504  IM1       H4             -1.7523281854        6.6492186244      -20.9290167246  IM1       234             0.0000000000
     10746       504  IM1       C3             -2.6562202336        8.5940711010      -21.4160865505  IM1       234             0.0000000000
     10747       504  IM1       DC3            -2.6448915615        8.5559802024      -21.4120086260  IM1       234             0.0000000000
     10748       504  IM1       H5             -3.6891375795        8.4206371982      -21.6915705571  IM1       234             0.0000000000
     10749       504  IM1       C4             -0.8980302855        9.7782024573      -20.9740270397  IM1       234             0.0000000000
     10750       504  IM1       DC4            -0.8883769788        9.7383894189      -20.9764482292  IM1       234             0.0000000000
     10751       504  IM1       H6             -0.2324021874       10.6162168493      -20.7672152563  IM1       234             0.0000000000
     10752       504  IM1       N2             -2.1444961347        9.8696008810      -21.4365062292  IM1       234             0.0000000000
     10753       504  IM1       DN2            -2.1460529860        9.8378416990      -21.4394150306  IM1       234             0.0000000000
     10754       504  IM1       H7             -2.6417850547       10.7161298080      -21.6264865065  IM1       234             0.0000000000
     10755       504  IM1       LPN21          -2.2800742430       10.1219408760      -21.5256303195  IM1       234             0.0000000000
     10756       505  IM1       C1             14.6032815364       25.1025979637       -7.3824524656  IM1       235             0.0000000000
     10757       505  IM1       DC1            14.5938998695       25.0901227159       -7.3841397092  IM1       235             0.0000000000
     10758       505  IM1       H1             14.1573381481       24.4630145086       -8.1738995573  IM1       235             0.0000000000
     10759       505  IM1       H2             14.2071956256       24.7882824084       -6.3931887580  IM1       235             0.0000000000
     10760       505  IM1       H3             15.7090228042       24.9969550094       -7.4047418295  IM1       235             0.0000000000
     10761       505  IM1       N1             14.2636814290       26.4752506779       -7.6075334502  IM1       235             0.0000000000
     10762       505  IM1       DN1            14.2644717284       26.4738714498       -7.5849878003  IM1       235             0.0000000000
     10763       505  IM1       C2             13.5876959527       26.9931497694       -8.6906031857  IM1       235             0.0000000000
     10764       505  IM1       DC2            13.6017472969       26.9687204728       -8.6687964126  IM1       235             0.0000000000
     10765       505  IM1       H4             13.2565118940       26.4161378050       -9.5451576382  IM1       235             0.0000000000
     10766       505  IM1       C3             13.3658210453       28.3061169890       -8.4000290620  IM1       235             0.0000000000
     10767       505  IM1       DC3            13.3739119029       28.3010604206       -8.3955022498  IM1       235             0.0000000000
     10768       505  IM1       H5             12.8152776977       29.0554904736       -8.9552140790  IM1       235             0.0000000000
     10769       505  IM1       C4             14.4458958482       27.4785129975       -6.7153031610  IM1       235             0.0000000000
     10770       505  IM1       DC4            14.4503906390       27.4687786625       -6.7109238261  IM1       235             0.0000000000
     10771       505  IM1       H6             14.9872535603       27.3560185663       -5.7772056491  IM1       235             0.0000000000
     10772       505  IM1       N2             13.9129089736       28.6104154225       -7.1629048307  IM1       235             0.0000000000
     10773       505  IM1       DN2            13.9147322995       28.6065403740       -7.1590631554  IM1       235             0.0000000000
     10774       505  IM1       H7             13.9000261650       29.4939057723       -6.6946326503  IM1       235             0.0000000000
     10775       505  IM1       LPN21          13.9155161698       28.8732783789       -7.0183494134  IM1       235             0.0000000000
     10776       506  IM1       C1             11.6789704120       -7.3322612113       18.4870023864  IM1       236             0.0000000000
     10777       506  IM1       DC1            11.6610968821       -7.3406838508       18.4725110473  IM1       236             0.0000000000
     10778       506  IM1       H1             10.9362136102       -6.9495760673       19.2192492109  IM1       236             0.0000000000
     10779       506  IM1       H2             11.4370206720       -8.3856614056       18.2298461031  IM1       236             0.0000000000
     10780       506  IM1       H3             11.6741774026       -6.7033808775       17.5711380112  IM1       236             0.0000000000
     10781       506  IM1       N1             12.9880253505       -7.3013716144       19.0630851840  IM1       236             0.0000000000
     10782       506  IM1       DN1            12.9783444065       -7.3135771296       19.0379655548  IM1       236             0.0000000000
     10783       506  IM1       C2             13.3146217723       -6.9387605467       20.3482853674  IM1       236             0.0000000000
     10784       506  IM1       DC2            13.3030789083       -6.9485850915       20.2915568716  IM1       236             0.0000000000
     10785       506  IM1       H4             12.6162857303       -6.5527956704       21.0805741674  IM1       236             0.0000000000
     10786       506  IM1       C3             14.6427440926       -7.2052202853       20.4850325481  IM1       236             0.0000000000
     10787       506  IM1       DC3            14.6364887820       -7.2079401357       20.4667612806  IM1       236             0.0000000000
     10788       506  IM1       H5             15.2938934703       -7.0627468882       21.3386102068  IM1       236             0.0000000000
     10789       506  IM1       C4             14.1098372559       -7.7759235725       18.4768703594  IM1       236             0.0000000000
     10790       506  IM1       DC4            14.0987544055       -7.7879565478       18.4745804329  IM1       236             0.0000000000
     10791       506  IM1       H6             14.1356491048       -8.1702402717       17.4610219016  IM1       236             0.0000000000
     10792       506  IM1       N2             15.1403507108       -7.7337064579       19.3063064636  IM1       236             0.0000000000
     10793       506  IM1       DN2            15.1421136192       -7.7434275751       19.2996290603  IM1       236             0.0000000000
     10794       506  IM1       H7             16.0812676648       -8.0089494409       19.1090335916  IM1       236             0.0000000000
     10795       506  IM1       LPN21          15.4196613723       -7.8226050128       19.2424112266  IM1       236             0.0000000000
     10796       507  IM1       C1              2.4697382421      -19.1213228370        1.8959826317  IM1       237             0.0000000000
     10797       507  IM1       DC1             2.4765109549      -19.1137793792        1.8772899412  IM1       237             0.0000000000
     10798       507  IM1       H1              2.1923864388      -19.6432892554        0.9552658645  IM1       237             0.0000000000
     10799       507  IM1       H2              2.8173283545      -18.0904574495        1.6705526700  IM1       237             0.0000000000
     10800       507  IM1       H3              1.5916692746      -19.0884571924        2.5758618398  IM1       237             0.0000000000
     10801       507  IM1       N1              3.5235749851      -19.8272003789        2.5533254423  IM1       237             0.0000000000
     10802       507  IM1       DN1             3.5230483791      -19.8066343765        2.5543342821  IM1       237             0.0000000000
     10803       507  IM1       C2              4.1006488616      -21.0099776825        2.1481536418  IM1       237             0.0000000000
     10804       507  IM1       DC2             4.0851579566      -20.9707961488        2.1285408328  IM1       237             0.0000000000
     10805       507  IM1       H4              3.7818739689      -21.5886057417        1.2899805026  IM1       237             0.0000000000
     10806       507  IM1       C3              5.0401002958      -21.3083659860        3.0894039333  IM1       237             0.0000000000
     10807       507  IM1       DC3             5.0426582595      -21.2720460726        3.0628824878  IM1       237             0.0000000000
     10808       507  IM1       H5              5.6810274337      -22.1763899474        3.1823329821  IM1       237             0.0000000000
     10809       507  IM1       C4              4.1327996160      -19.4365052444        3.6965819745  IM1       237             0.0000000000
     10810       507  IM1       DC4             4.1338519905      -19.4299016136        3.6784117146  IM1       237             0.0000000000
     10811       507  IM1       H6              3.8405311260      -18.5501989082        4.2597340040  IM1       237             0.0000000000
     10812       507  IM1       N2              5.0852119286      -20.2956306068        4.0380789739  IM1       237             0.0000000000
     10813       507  IM1       DN2             5.0897901492      -20.2835272106        4.0320861449  IM1       237             0.0000000000
     10814       507  IM1       H7              5.6459555202      -20.2686508474        4.8656288015  IM1       237             0.0000000000
     10815       507  IM1       LPN21           5.2678800817      -20.2674526369        4.2743803659  IM1       237             0.0000000000
     10816       508  IM1       C1            -11.5173868444      -26.6511687727      -10.7035532691  IM1       238             0.0000000000
     10817       508  IM1       DC1           -11.5277195414      -26.6610034313      -10.7047876559  IM1       238             0.0000000000
     10818       508  IM1       H1            -12.1646176003      -27.4545701935      -11.1158147224  IM1       238             0.0000000000
     10819       508  IM1       H2            -10.5559836493      -26.6180596715      -11.2593668038  IM1       238             0.0000000000
     10820       508  IM1       H3            -12.0359236370      -25.6723718343      -10.7895599479  IM1       238             0.0000000000
     10821       508  IM1       N1            -11.2383782324      -26.9047265157       -9.3225624016  IM1       238             0.0000000000
     10822       508  IM1       DN1           -11.2347592702      -26.8906415918       -9.3215427704  IM1       238             0.0000000000
     10823       508  IM1       C2            -11.5331026398      -28.0530123043       -8.6210956575  IM1       238             0.0000000000
     10824       508  IM1       DC2           -11.5327027670      -28.0293284480       -8.6455132049  IM1       238             0.0000000000
     10825       508  IM1       H4            -12.0849678531      -28.8928266385       -9.0248847983  IM1       238             0.0000000000
     10826       508  IM1       C3            -10.9819873156      -27.8892408457       -7.3836772435  IM1       238             0.0000000000
     10827       508  IM1       DC3           -10.9818372630      -27.8759860586       -7.3964305501  IM1       238             0.0000000000
     10828       508  IM1       H5            -10.9659618596      -28.5624254889       -6.5354705345  IM1       238             0.0000000000
     10829       508  IM1       C4            -10.5294129078      -26.0911663636       -8.5042222833  IM1       238             0.0000000000
     10830       508  IM1       DC4           -10.5418082326      -26.0883872049       -8.5041401021  IM1       238             0.0000000000
     10831       508  IM1       H6            -10.0870430569      -25.1514905412       -8.8350065996  IM1       238             0.0000000000
     10832       508  IM1       N2            -10.3597787381      -26.6508630197       -7.3094830918  IM1       238             0.0000000000
     10833       508  IM1       DN2           -10.3593393812      -26.6433123660       -7.3073815372  IM1       238             0.0000000000
     10834       508  IM1       H7             -9.8267071330      -26.2850443769       -6.5465863856  IM1       238             0.0000000000
     10835       508  IM1       LPN21         -10.2151403166      -26.5268606482       -7.0777437148  IM1       238             0.0000000000
     10836       509  IM1       C1             -1.3461180346       -6.0183408009        7.8817233783  IM1       239             0.0000000000
     10837       509  IM1       DC1            -1.3273393643       -6.0167329264        7.8900262278  IM1       239             0.0000000000
     10838       509  IM1       H1             -1.2910861873       -4.9599971142        7.5482550327  IM1       239             0.0000000000
     10839       509  IM1       H2             -0.5237781409       -6.5883178707        7.3988111304  IM1       239             0.0000000000
     10840       509  IM1       H3             -1.2821802681       -6.0596030103        8.9901142814  IM1       239             0.0000000000
     10841       509  IM1       N1             -2.5859654966       -6.5959535725        7.4753161446  IM1       239             0.0000000000
     10842       509  IM1       DN1            -2.5677040597       -6.5919256191        7.4779801315  IM1       239             0.0000000000
     10843       509  IM1       C2             -3.5437493216       -5.9420115523        6.7405652545  IM1       239             0.0000000000
     10844       509  IM1       DC2            -3.5171648368       -5.9495404680        6.7446527940  IM1       239             0.0000000000
     10845       509  IM1       H4             -3.5173186172       -4.8808496428        6.5257960306  IM1       239             0.0000000000
     10846       509  IM1       C3             -4.4804131601       -6.8746126966        6.4344968674  IM1       239             0.0000000000
     10847       509  IM1       DC3            -4.4868355614       -6.8641951140        6.4062657391  IM1       239             0.0000000000
     10848       509  IM1       H5             -5.4252173979       -6.7671098081        5.9161561675  IM1       239             0.0000000000
     10849       509  IM1       C4             -2.9586159826       -7.8964859356        7.5792451518  IM1       239             0.0000000000
     10850       509  IM1       DC4            -2.9322497341       -7.8766593034        7.5681562646  IM1       239             0.0000000000
     10851       509  IM1       H6             -2.4293082084       -8.6419163365        8.1727658319  IM1       239             0.0000000000
     10852       509  IM1       N2             -4.0909874025       -8.1068947822        6.9127022153  IM1       239             0.0000000000
     10853       509  IM1       DN2            -4.0813134656       -8.0894195111        6.8892614898  IM1       239             0.0000000000
     10854       509  IM1       H7             -4.6182913923       -8.9564655425        6.8992848536  IM1       239             0.0000000000
     10855       509  IM1       LPN21          -4.2273829996       -8.3718513488        6.8781441644  IM1       239             0.0000000000
     10856       510  IM1       C1             23.4249130524      -15.2637483221       -5.9512194379  IM1       240             0.0000000000
     10857       510  IM1       DC1            23.4591382307      -15.2522462732       -5.9481046915  IM1       240             0.0000000000
     10858       510  IM1       H1             23.1200391350      -16.2616988321       -6.3326216859  IM1       240             0.0000000000
     10859       510  IM1       H2             22.9945621768      -14.4813498170       -6.6122577914  IM1       240             0.0000000000
     10860       510  IM1       H3             23.0469265999      -15.1383559351       -4.9140482896  IM1       240             0.0000000000
     10861       510  IM1       N1             24.8547531004      -15.1469299112       -5.9418228461  IM1       240             0.0000000000
     10862       510  IM1       DN1            24.8800840261      -15.1266602070       -5.9432755859  IM1       240             0.0000000000
     10863       510  IM1       C2             25.7545397507      -16.1333929141       -6.2826660749  IM1       240             0.0000000000
     10864       510  IM1       DC2            25.7522658757      -16.1070282274       -6.2889426584  IM1       240             0.0000000000
     10865       510  IM1       H4             25.4616814551      -17.1324438885       -6.5810285542  IM1       240             0.0000000000
     10866       510  IM1       C3             26.9938435537      -15.5915326476       -6.1129322955  IM1       240             0.0000000000
     10867       510  IM1       DC3            27.0009076010      -15.5667369015       -6.1276316934  IM1       240             0.0000000000
     10868       510  IM1       H5             27.9707860507      -16.0408859697       -6.2415944489  IM1       240             0.0000000000
     10869       510  IM1       C4             25.5652076010      -14.0499984213       -5.5817508581  IM1       240             0.0000000000
     10870       510  IM1       DC4            25.5678456507      -14.0385934701       -5.5875209562  IM1       240             0.0000000000
     10871       510  IM1       H6             25.1072212147      -13.1330241431       -5.2109319763  IM1       240             0.0000000000
     10872       510  IM1       N2             26.8739664602      -14.2714332771       -5.7081573563  IM1       240             0.0000000000
     10873       510  IM1       DN2            26.8808848381      -14.2525974924       -5.7247173766  IM1       240             0.0000000000
     10874       510  IM1       H7             27.6142806463      -13.6447004354       -5.4649684360  IM1       240             0.0000000000
     10875       510  IM1       LPN21          27.0910702561      -14.0707350332       -5.6573030870  IM1       240             0.0000000000
     10876       511  IM1       C1              0.8438310454      -25.2209630996       19.7720169688  IM1       241             0.0000000000
     10877       511  IM1       DC1             0.8378691966      -25.1818993440       19.7695815553  IM1       241             0.0000000000
     10878       511  IM1       H1             -0.0913791050      -25.7308776812       20.0877543506  IM1       241             0.0000000000
     10879       511  IM1       H2              1.7070314372      -25.6506597211       20.3238927692  IM1       241             0.0000000000
     10880       511  IM1       H3              0.9911413907      -25.3553555299       18.6790579859  IM1       241             0.0000000000
     10881       511  IM1       N1              0.7612331862      -23.8367289267       20.0706210902  IM1       241             0.0000000000
     10882       511  IM1       DN1             0.7753609830      -23.7926290631       20.0645496120  IM1       241             0.0000000000
     10883       511  IM1       C2             -0.2510072305      -23.2122293192       20.7558303369  IM1       241             0.0000000000
     10884       511  IM1       DC2            -0.2297326456      -23.1594500691       20.7218138997  IM1       241             0.0000000000
     10885       511  IM1       H4             -1.0913220631      -23.7512297587       21.1756380408  IM1       241             0.0000000000
     10886       511  IM1       C3              0.0773305257      -21.8975215141       20.7879868553  IM1       241             0.0000000000
     10887       511  IM1       DC3             0.1174648341      -21.8423986041       20.7710781110  IM1       241             0.0000000000
     10888       511  IM1       H5             -0.4690803863      -21.0669881244       21.2175661887  IM1       241             0.0000000000
     10889       511  IM1       C4              1.6652803003      -22.8958358883       19.7188057524  IM1       241             0.0000000000
     10890       511  IM1       DC4             1.6654725577      -22.8634135540       19.7160045100  IM1       241             0.0000000000
     10891       511  IM1       H6              2.5955228542      -23.1395771546       19.2056401008  IM1       241             0.0000000000
     10892       511  IM1       N2              1.2746069705      -21.6835823060       20.1217325202  IM1       241             0.0000000000
     10893       511  IM1       DN2             1.3105870073      -21.6210927817       20.0817393971  IM1       241             0.0000000000
     10894       511  IM1       H7              1.7778882702      -20.8247968518       20.0258394709  IM1       241             0.0000000000
     10895       511  IM1       LPN21           1.4204591516      -21.4257866066       20.0741035515  IM1       241             0.0000000000
     10896       512  IM1       C1            -23.6597202412       -2.7266637723      -16.8478517452  IM1       242             0.0000000000
     10897       512  IM1       DC1           -23.6690712999       -2.7288180567      -16.8227134351  IM1       242             0.0000000000
     10898       512  IM1       H1            -23.5643975068       -1.6925609423      -16.4530531749  IM1       242             0.0000000000
     10899       512  IM1       H2            -23.6084683348       -3.4597015202      -16.0145751391  IM1       242             0.0000000000
     10900       512  IM1       H3            -24.6142079897       -2.8221537646      -17.4083477750  IM1       242             0.0000000000
     10901       512  IM1       N1            -22.5932729751       -2.9926749040      -17.7262708871  IM1       242             0.0000000000
     10902       512  IM1       DN1           -22.6242654529       -3.0229126068      -17.7146780064  IM1       242             0.0000000000
     10903       512  IM1       C2            -21.5351618308       -2.1671618793      -17.9564519052  IM1       242             0.0000000000
     10904       512  IM1       DC2           -21.6059637583       -2.1746605898      -17.9325220358  IM1       242             0.0000000000
     10905       512  IM1       H4            -21.4141835096       -1.1881795597      -17.5094095542  IM1       242             0.0000000000
     10906       512  IM1       C3            -20.7095627644       -2.8454924781      -18.7955008052  IM1       242             0.0000000000
     10907       512  IM1       DC3           -20.7708124189       -2.8224663258      -18.7909213375  IM1       242             0.0000000000
     10908       512  IM1       H5            -19.7885886474       -2.5130622838      -19.2583029699  IM1       242             0.0000000000
     10909       512  IM1       C4            -22.3991634747       -4.1287640857      -18.4248357399  IM1       242             0.0000000000
     10910       512  IM1       DC4           -22.4137002183       -4.1338721743      -18.4162063437  IM1       242             0.0000000000
     10911       512  IM1       H6            -23.0999104672       -4.9636043337      -18.4346036953  IM1       242             0.0000000000
     10912       512  IM1       N2            -21.2794790824       -4.0739192361      -19.1102833698  IM1       242             0.0000000000
     10913       512  IM1       DN2           -21.3007259645       -4.0768456842      -19.1097196915  IM1       242             0.0000000000
     10914       512  IM1       H7            -20.8880556200       -4.7853098612      -19.6939879627  IM1       242             0.0000000000
     10915       512  IM1       LPN21         -21.1787739630       -4.2890120656      -19.2935688128  IM1       242             0.0000000000
     10916       513  IM1       C1             -6.2402398102       29.0258067887        9.7332335570  IM1       243             0.0000000000
     10917       513  IM1       DC1            -6.2339499756       29.0224432355        9.7032549796  IM1       243             0.0000000000
     10918       513  IM1       H1             -7.3324613067       29.1323881383        9.5599891672  IM1       243             0.0000000000
     10919       513  IM1       H2             -5.7634272318       30.0288260093        9.7636179285  IM1       243             0.0000000000
     10920       513  IM1       H3             -6.0819013120       28.5021221778       10.7001897849  IM1       243             0.0000000000
     10921       513  IM1       N1             -5.6427000235       28.2505504935        8.6893537791  IM1       243             0.0000000000
     10922       513  IM1       DN1            -5.6163356361       28.2437698199        8.6735561168  IM1       243             0.0000000000
     10923       513  IM1       C2             -6.3054811583       27.6576382307        7.6383596279  IM1       243             0.0000000000
     10924       513  IM1       DC2            -6.2866753020       27.6746857377        7.6394987367  IM1       243             0.0000000000
     10925       513  IM1       H4             -7.3780624315       27.7079235750        7.4971866964  IM1       243             0.0000000000
     10926       513  IM1       C3             -5.3549455977       26.9960730001        6.9240648869  IM1       243             0.0000000000
     10927       513  IM1       DC3            -5.3331276000       27.0097519892        6.9122977532  IM1       243             0.0000000000
     10928       513  IM1       H5             -5.4653249039       26.3888786587        6.0341095844  IM1       243             0.0000000000
     10929       513  IM1       C4             -4.3253654701       27.9465717927        8.5748990305  IM1       243             0.0000000000
     10930       513  IM1       DC4            -4.3128407925       27.9444152124        8.5729355244  IM1       243             0.0000000000
     10931       513  IM1       H6             -3.5729219808       28.2775797636        9.2906940560  IM1       243             0.0000000000
     10932       513  IM1       N2             -4.1051433068       27.1923963086        7.4996537916  IM1       243             0.0000000000
     10933       513  IM1       DN2            -4.0856362099       27.1919195134        7.4978100697  IM1       243             0.0000000000
     10934       513  IM1       H7             -3.2301446328       26.8227997689        7.1869627005  IM1       243             0.0000000000
     10935       513  IM1       LPN21          -3.8378102646       27.0909799105        7.4088366194  IM1       243             0.0000000000
     10936       514  IM1       C1             14.5072158663       10.0552750058        1.5719575372  IM1       244             0.0000000000
     10937       514  IM1       DC1            14.5247499676       10.0536692361        1.5682380628  IM1       244             0.0000000000
     10938       514  IM1       H1             13.4484442406       10.1768946679        1.2580589817  IM1       244             0.0000000000
     10939       514  IM1       H2             14.6134912112       10.4072813695        2.6203458579  IM1       244             0.0000000000
     10940       514  IM1       H3             14.7904108497        8.9843562688        1.4867832549  IM1       244             0.0000000000
     10941       514  IM1       N1             15.3632664171       10.8325092779        0.7239588503  IM1       244             0.0000000000
     10942       514  IM1       DN1            15.3742367872       10.8340100226        0.7301421402  IM1       244             0.0000000000
     10943       514  IM1       C2             14.9444562619       11.6302896516       -0.3178932051  IM1       244             0.0000000000
     10944       514  IM1       DC2            14.9552423742       11.6177118211       -0.3005338498  IM1       244             0.0000000000
     10945       514  IM1       H4             13.9090747098       11.7374064133       -0.6168916014  IM1       244             0.0000000000
     10946       514  IM1       C3             16.0642419931       12.2207265879       -0.8104255837  IM1       244             0.0000000000
     10947       514  IM1       DC3            16.0656574151       12.2306174740       -0.8114104689  IM1       244             0.0000000000
     10948       514  IM1       H5             16.1839422530       12.9297803594       -1.6202425982  IM1       244             0.0000000000
     10949       514  IM1       C4             16.7090955667       10.9712875445        0.8377867872  IM1       244             0.0000000000
     10950       514  IM1       DC4            16.6959870912       10.9671134205        0.8451370885  IM1       244             0.0000000000
     10951       514  IM1       H6             17.3117365217       10.4889339843        1.6073703904  IM1       244             0.0000000000
     10952       514  IM1       N2             17.1681061730       11.8130648440       -0.0817491562  IM1       244             0.0000000000
     10953       514  IM1       DN2            17.1581772209       11.8165989679       -0.0810749933  IM1       244             0.0000000000
     10954       514  IM1       H7             18.1175182666       12.1021242519       -0.2044737876  IM1       244             0.0000000000
     10955       514  IM1       LPN21          17.4551952930       11.8927742720       -0.1167669270  IM1       244             0.0000000000
     10956       515  IM1       C1             -6.9064167408      -17.9113114476       -1.8181245496  IM1       245             0.0000000000
     10957       515  IM1       DC1            -6.9500810456      -17.9153551590       -1.8003543511  IM1       245             0.0000000000
     10958       515  IM1       H1             -7.9952420200      -17.9137719962       -2.0389739497  IM1       245             0.0000000000
     10959       515  IM1       H2             -6.6829660736      -18.4400352946       -0.8668927730  IM1       245             0.0000000000
     10960       515  IM1       H3             -6.3597758760      -18.3971555933       -2.6544619409  IM1       245             0.0000000000
     10961       515  IM1       N1             -6.4497419386      -16.5696903917       -1.7158562018  IM1       245             0.0000000000
     10962       515  IM1       DN1            -6.4692316329      -16.5810769629       -1.7083697378  IM1       245             0.0000000000
     10963       515  IM1       C2             -7.2186478897      -15.4293029047       -1.7935571800  IM1       245             0.0000000000
     10964       515  IM1       DC2            -7.2476320490      -15.4683225517       -1.7733817339  IM1       245             0.0000000000
     10965       515  IM1       H4             -8.2838666950      -15.4083709534       -1.9878758623  IM1       245             0.0000000000
     10966       515  IM1       C3             -6.3399637018      -14.3909192244       -1.6864109269  IM1       245             0.0000000000
     10967       515  IM1       DC3            -6.3790555619      -14.4062269309       -1.6752813045  IM1       245             0.0000000000
     10968       515  IM1       H5             -6.5050638497      -13.3213890517       -1.7280780719  IM1       245             0.0000000000
     10969       515  IM1       C4             -5.1599120053      -16.1954866614       -1.5582590827  IM1       245             0.0000000000
     10970       515  IM1       DC4            -5.1980074939      -16.2012030307       -1.5482180327  IM1       245             0.0000000000
     10971       515  IM1       H6             -4.3298997050      -16.8993627294       -1.4971193741  IM1       245             0.0000000000
     10972       515  IM1       N2             -5.0669749753      -14.8738443167       -1.4879735907  IM1       245             0.0000000000
     10973       515  IM1       DN2            -5.0990456112      -14.8811433358       -1.4659518782  IM1       245             0.0000000000
     10974       515  IM1       H7             -4.2269512111      -14.3397964955       -1.3923022744  IM1       245             0.0000000000
     10975       515  IM1       LPN21          -4.8148146692      -14.7190720719       -1.4383678221  IM1       245             0.0000000000
     10976       516  IM1       C1             24.4032428497       24.4220142780       -4.2765662494  IM1       246             0.0000000000
     10977       516  IM1       DC1            24.3990764886       24.4305582292       -4.2755552368  IM1       246             0.0000000000
     10978       516  IM1       H1             25.2135823831       25.1634274694       -4.1093020247  IM1       246             0.0000000000
     10979       516  IM1       H2             23.4279265160       24.8659714094       -3.9833408844  IM1       246             0.0000000000
     10980       516  IM1       H3             24.3882614979       24.1267011005       -5.3474942043  IM1       246             0.0000000000
     10981       516  IM1       N1             24.6386493415       23.2540614664       -3.4822646691  IM1       246             0.0000000000
     10982       516  IM1       DN1            24.6172598291       23.2523412460       -3.4931486372  IM1       246             0.0000000000
     10983       516  IM1       C2             25.6887295078       23.0560378837       -2.6140695381  IM1       246             0.0000000000
     10984       516  IM1       DC2            25.6605297750       23.0778679527       -2.6383686787  IM1       246             0.0000000000
     10985       516  IM1       H4             26.4829806077       23.7713830770       -2.4398988029  IM1       246             0.0000000000
     10986       516  IM1       C3             25.5079190892       21.8120334854       -2.0846274178  IM1       246             0.0000000000
     10987       516  IM1       DC3            25.4991437899       21.8274341280       -2.0977920824  IM1       246             0.0000000000
     10988       516  IM1       H5             26.1085037374       21.2688474104       -1.3655057534  IM1       246             0.0000000000
     10989       516  IM1       C4             23.8606666550       22.1440125036       -3.4532804561  IM1       246             0.0000000000
     10990       516  IM1       DC4            23.8521488095       22.1543828383       -3.4609599304  IM1       246             0.0000000000
     10991       516  IM1       H6             22.9503774965       22.0264216318       -4.0411971463  IM1       246             0.0000000000
     10992       516  IM1       N2             24.3598836237       21.2415840216       -2.6169733364  IM1       246             0.0000000000
     10993       516  IM1       DN2            24.3569966105       21.2443978147       -2.6266027643  IM1       246             0.0000000000
     10994       516  IM1       H7             23.9790017616       20.3415277508       -2.4052477675  IM1       246             0.0000000000
     10995       516  IM1       LPN21          24.2410064982       20.9718204454       -2.5613330455  IM1       246             0.0000000000
     10996       517  IM1       C1            -22.9424708408      -20.4873161925       -0.1118294886  IM1       247             0.0000000000
     10997       517  IM1       DC1           -22.9584548146      -20.4621468835       -0.1078838035  IM1       247             0.0000000000
     10998       517  IM1       H1            -22.5506212502      -21.0879385864        0.7367149356  IM1       247             0.0000000000
     10999       517  IM1       H2            -22.9909669699      -21.1370165920       -1.0117508835  IM1       247             0.0000000000
     11000       517  IM1       H3            -23.9449762879      -20.0821433060        0.1433934737  IM1       247             0.0000000000
     11001       517  IM1       N1            -22.0518158679      -19.4012536388       -0.3887504861  IM1       247             0.0000000000
     11002       517  IM1       DN1           -22.0472537669      -19.3738342037       -0.3958184485  IM1       247             0.0000000000
     11003       517  IM1       C2            -20.9487343069      -19.0408973645        0.3510912042  IM1       247             0.0000000000
     11004       517  IM1       DC2           -20.9504360205      -19.0072079550        0.3373630705  IM1       247             0.0000000000
     11005       517  IM1       H4            -20.5951179455      -19.6227391510        1.1932934390  IM1       247             0.0000000000
     11006       517  IM1       C3            -20.4151530895      -17.9581448296       -0.2705803962  IM1       247             0.0000000000
     11007       517  IM1       DC3           -20.4037577666      -17.9146565596       -0.2815246098  IM1       247             0.0000000000
     11008       517  IM1       H5            -19.5267902096      -17.3867533821       -0.0313896618  IM1       247             0.0000000000
     11009       517  IM1       C4            -22.1681291881      -18.5187595548       -1.4082706817  IM1       247             0.0000000000
     11010       517  IM1       DC4           -22.1746678525      -18.5075356286       -1.4073797070  IM1       247             0.0000000000
     11011       517  IM1       H6            -22.9940685694      -18.5331912621       -2.1194077039  IM1       247             0.0000000000
     11012       517  IM1       N2            -21.1895091580      -17.6120872517       -1.3642155930  IM1       247             0.0000000000
     11013       517  IM1       DN2           -21.1929210351      -17.5880394624       -1.3671469580  IM1       247             0.0000000000
     11014       517  IM1       H7            -21.0677872521      -16.8315539242       -1.9773644348  IM1       247             0.0000000000
     11015       517  IM1       LPN21         -21.1523457456      -17.3839211304       -1.5554199388  IM1       247             0.0000000000
     11016       518  IM1       C1            -17.7156957140        2.7943246995      -16.1343005967  IM1       248             0.0000000000
     11017       518  IM1       DC1           -17.7066030384        2.7738352298      -16.1759122081  IM1       248             0.0000000000
     11018       518  IM1       H1            -17.7680243320        3.6411654332      -16.8515477559  IM1       248             0.0000000000
     11019       518  IM1       H2            -16.6549360142        2.5586881432      -15.9028156636  IM1       248             0.0000000000
     11020       518  IM1       H3            -18.2561659856        3.0625903364      -15.2014305982  IM1       248             0.0000000000
     11021       518  IM1       N1            -18.3587658517        1.6368210070      -16.6457765541  IM1       248             0.0000000000
     11022       518  IM1       DN1           -18.3692784467        1.6259836322      -16.6588607730  IM1       248             0.0000000000
     11023       518  IM1       C2            -18.7039368302        1.4263879109      -17.9606151450  IM1       248             0.0000000000
     11024       518  IM1       DC2           -18.7026352313        1.4533294917      -17.9599731539  IM1       248             0.0000000000
     11025       518  IM1       H4            -18.5441278644        2.1502373642      -18.7501669567  IM1       248             0.0000000000
     11026       518  IM1       C3            -19.2089709881        0.1742345984      -18.0164833181  IM1       248             0.0000000000
     11027       518  IM1       DC3           -19.2191218018        0.1939315870      -18.0209012181  IM1       248             0.0000000000
     11028       518  IM1       H5            -19.5966333329       -0.3718293668      -18.8676125987  IM1       248             0.0000000000
     11029       518  IM1       C4            -18.6598074384        0.5158514481      -15.9495473666  IM1       248             0.0000000000
     11030       518  IM1       DC4           -18.6530680942        0.5311009135      -15.9611572916  IM1       248             0.0000000000
     11031       518  IM1       H6            -18.4718870273        0.3888048332      -14.8834117858  IM1       248             0.0000000000
     11032       518  IM1       N2            -19.2041934665       -0.3886736050      -16.7534113340  IM1       248             0.0000000000
     11033       518  IM1       DN2           -19.2153294261       -0.3734291837      -16.7640153011  IM1       248             0.0000000000
     11034       518  IM1       H7            -19.5121643017       -1.3053600521      -16.4987744899  IM1       248             0.0000000000
     11035       518  IM1       LPN21         -19.3035217369       -0.6588188298      -16.6688214279  IM1       248             0.0000000000
     11036       519  IM1       C1            -18.8718197636       -1.7219933742      -23.1375412691  IM1       249             0.0000000000
     11037       519  IM1       DC1           -18.8697175076       -1.6944782378      -23.1194695299  IM1       249             0.0000000000
     11038       519  IM1       H1            -19.6145141616       -1.2142025898      -22.4857172509  IM1       249             0.0000000000
     11039       519  IM1       H2            -19.1362034234       -1.5428180121      -24.2016458089  IM1       249             0.0000000000
     11040       519  IM1       H3            -17.8482297025       -1.3449577879      -22.9267604504  IM1       249             0.0000000000
     11041       519  IM1       N1            -18.8895449716       -3.1326211314      -22.8887188771  IM1       249             0.0000000000
     11042       519  IM1       DN1           -18.8815338928       -3.1106039457      -22.8981102495  IM1       249             0.0000000000
     11043       519  IM1       C2            -19.5106896691       -3.7336386035      -21.8251644935  IM1       249             0.0000000000
     11044       519  IM1       DC2           -19.4875364772       -3.7064002118      -21.8498053531  IM1       249             0.0000000000
     11045       519  IM1       H4            -20.1785168260       -3.2026252530      -21.1581407232  IM1       249             0.0000000000
     11046       519  IM1       C3            -19.2250953015       -5.0613016024      -21.9045786623  IM1       249             0.0000000000
     11047       519  IM1       DC3           -19.2456115487       -5.0619377316      -21.9225294738  IM1       249             0.0000000000
     11048       519  IM1       H5            -19.5536515567       -5.8763349444      -21.2716012230  IM1       249             0.0000000000
     11049       519  IM1       C4            -18.2307301405       -4.1004574118      -23.5691653495  IM1       249             0.0000000000
     11050       519  IM1       DC4           -18.2472028080       -4.0849932714      -23.5482497473  IM1       249             0.0000000000
     11051       519  IM1       H6            -17.5864751312       -3.8848616820      -24.4215466986  IM1       249             0.0000000000
     11052       519  IM1       N2            -18.4377378016       -5.2971858384      -23.0147389248  IM1       249             0.0000000000
     11053       519  IM1       DN2           -18.4482605619       -5.3043451817      -23.0160172995  IM1       249             0.0000000000
     11054       519  IM1       H7            -18.0598337335       -6.1715066900      -23.3192903389  IM1       249             0.0000000000
     11055       519  IM1       LPN21         -18.3317187184       -5.5588147591      -23.1162783845  IM1       249             0.0000000000
     11056       520  IM1       C1            -25.5293954249        5.6918359980       20.9388487464  IM1       250             0.0000000000
     11057       520  IM1       DC1           -25.4901551665        5.6929584749       20.9201929170  IM1       250             0.0000000000
     11058       520  IM1       H1            -25.8724109788        4.8481183280       20.3026083639  IM1       250             0.0000000000
     11059       520  IM1       H2            -26.0995322100        6.6123126319       20.6898752282  IM1       250             0.0000000000
     11060       520  IM1       H3            -25.6853705223        5.4223522145       22.0053248417  IM1       250             0.0000000000
     11061       520  IM1       N1            -24.1523147496        5.9560534782       20.7351566982  IM1       250             0.0000000000
     11062       520  IM1       DN1           -24.1151803973        5.9575846182       20.7256829777  IM1       250             0.0000000000
     11063       520  IM1       C2            -23.3059067336        5.2406279423       19.9255790476  IM1       250             0.0000000000
     11064       520  IM1       DC2           -23.3073981919        5.2276901400       19.9107875450  IM1       250             0.0000000000
     11065       520  IM1       H4            -23.6410712548        4.4292553963       19.2913643083  IM1       250             0.0000000000
     11066       520  IM1       C3            -22.0702457348        5.7744369989       20.1210448644  IM1       250             0.0000000000
     11067       520  IM1       DC3           -22.0629121786        5.7388709230       20.1440365191  IM1       250             0.0000000000
     11068       520  IM1       H5            -21.1205557072        5.5473870810       19.6526153746  IM1       250             0.0000000000
     11069       520  IM1       C4            -23.4171727646        6.8841792957       21.3921082279  IM1       250             0.0000000000
     11070       520  IM1       DC4           -23.4176280563        6.8731329287       21.3920323609  IM1       250             0.0000000000
     11071       520  IM1       H6            -23.8481808645        7.6465864770       22.0410052211  IM1       250             0.0000000000
     11072       520  IM1       N2            -22.1332527855        6.7785327423       21.0617005885  IM1       250             0.0000000000
     11073       520  IM1       DN2           -22.1333524480        6.7647885909       21.0568344362  IM1       250             0.0000000000
     11074       520  IM1       H7            -21.3879527481        7.3843267302       21.3401633301  IM1       250             0.0000000000
     11075       520  IM1       LPN21         -21.9091410864        6.9435037459       21.1737653656  IM1       250             0.0000000000
     11076       521  IM1       C1             12.7327816301       17.0006143315      -18.5067135955  IM1       251             0.0000000000
     11077       521  IM1       DC1            12.7402401655       17.0273761709      -18.4839694162  IM1       251             0.0000000000
     11078       521  IM1       H1             13.1848291245       17.7049516265      -17.7760405929  IM1       251             0.0000000000
     11079       521  IM1       H2             12.3715561658       16.0928401222      -17.9777682779  IM1       251             0.0000000000
     11080       521  IM1       H3             11.8902293803       17.4780865338      -19.0511830645  IM1       251             0.0000000000
     11081       521  IM1       N1             13.7099289031       16.6234347350      -19.4653084374  IM1       251             0.0000000000
     11082       521  IM1       DN1            13.7005536637       16.6230548416      -19.4567224152  IM1       251             0.0000000000
     11083       521  IM1       C2             15.0462750063       16.9486472195      -19.4365033289  IM1       251             0.0000000000
     11084       521  IM1       DC2            15.0178576459       16.9564000210      -19.4070757301  IM1       251             0.0000000000
     11085       521  IM1       H4             15.4988367280       17.6398915452      -18.7363189459  IM1       251             0.0000000000
     11086       521  IM1       C3             15.6099394764       16.2983120573      -20.4929919168  IM1       251             0.0000000000
     11087       521  IM1       DC3            15.5929937340       16.3062543936      -20.4731068613  IM1       251             0.0000000000
     11088       521  IM1       H5             16.6345848236       16.3009866944      -20.8436823200  IM1       251             0.0000000000
     11089       521  IM1       C4             13.4995844211       15.8033754938      -20.5209004245  IM1       251             0.0000000000
     11090       521  IM1       DC4            13.5080603289       15.8149331342      -20.5027533647  IM1       251             0.0000000000
     11091       521  IM1       H6             12.5301038755       15.3631145968      -20.7540909355  IM1       251             0.0000000000
     11092       521  IM1       N2             14.6378493504       15.5828404214      -21.1723387081  IM1       251             0.0000000000
     11093       521  IM1       DN2            14.6386172315       15.5871082010      -21.1672757024  IM1       251             0.0000000000
     11094       521  IM1       H7             14.7656891760       14.9987387772      -21.9738886118  IM1       251             0.0000000000
     11095       521  IM1       LPN21          14.6682804242       15.4111331004      -21.4164504564  IM1       251             0.0000000000
     11096       522  IM1       C1             -7.2694777627       14.5069148592      -18.7882129699  IM1       252             0.0000000000
     11097       522  IM1       DC1            -7.3084301536       14.4901422653      -18.8249767777  IM1       252             0.0000000000
     11098       522  IM1       H1             -7.2555530698       15.5736732794      -18.4781265670  IM1       252             0.0000000000
     11099       522  IM1       H2             -6.2918660426       14.2697985674      -19.2597765280  IM1       252             0.0000000000
     11100       522  IM1       H3             -7.4363495397       13.8723422320      -17.8916682745  IM1       252             0.0000000000
     11101       522  IM1       N1             -8.3104662804       14.3050186600      -19.7269183563  IM1       252             0.0000000000
     11102       522  IM1       DN1            -8.3289565998       14.2850800805      -19.7548530818  IM1       252             0.0000000000
     11103       522  IM1       C2             -9.0643003060       15.3136376875      -20.2668079749  IM1       252             0.0000000000
     11104       522  IM1       DC2            -9.0543230560       15.3093905527      -20.2518483488  IM1       252             0.0000000000
     11105       522  IM1       H4             -8.9657404645       16.3493117737      -19.9658858174  IM1       252             0.0000000000
     11106       522  IM1       C3             -9.8575093934       14.7330334035      -21.1959463568  IM1       252             0.0000000000
     11107       522  IM1       DC3            -9.8492059114       14.7310914489      -21.1918110357  IM1       252             0.0000000000
     11108       522  IM1       H5            -10.5810353404       15.1830046231      -21.8644709319  IM1       252             0.0000000000
     11109       522  IM1       C4             -8.6550514145       13.1493037013      -20.3419727933  IM1       252             0.0000000000
     11110       522  IM1       DC4            -8.6443284443       13.1377679250      -20.3470457584  IM1       252             0.0000000000
     11111       522  IM1       H6             -8.2053914915       12.1827229236      -20.1147558181  IM1       252             0.0000000000
     11112       522  IM1       N2             -9.5928561611       13.3722709156      -21.2545643065  IM1       252             0.0000000000
     11113       522  IM1       DN2            -9.5857831484       13.3699711246      -21.2588720408  IM1       252             0.0000000000
     11114       522  IM1       H7            -10.0292731134       12.7012680066      -21.8539768021  IM1       252             0.0000000000
     11115       522  IM1       LPN21          -9.7159324181       13.1641535086      -21.4321576055  IM1       252             0.0000000000
     11116       523  IM1       C1            -16.0763311424       -3.7388897878       -3.8419921033  IM1       253             0.0000000000
     11117       523  IM1       DC1           -16.0554199776       -3.7849668250       -3.8096674041  IM1       253             0.0000000000
     11118       523  IM1       H1            -15.4325553933       -3.1985335231       -3.1154324760  IM1       253             0.0000000000
     11119       523  IM1       H2            -17.1079961757       -3.7921381783       -3.4331487731  IM1       253             0.0000000000
     11120       523  IM1       H3            -16.0853682451       -3.1882490119       -4.8068931695  IM1       253             0.0000000000
     11121       523  IM1       N1            -15.5848400808       -5.0618410106       -4.0613742955  IM1       253             0.0000000000
     11122       523  IM1       DN1           -15.5627659009       -5.0989946159       -4.0433044046  IM1       253             0.0000000000
     11123       523  IM1       C2            -14.4856894348       -5.6289255135       -3.4469556227  IM1       253             0.0000000000
     11124       523  IM1       DC2           -14.4797585677       -5.6358803523       -3.4080559406  IM1       253             0.0000000000
     11125       523  IM1       H4            -13.8291209832       -5.0646644715       -2.7962511238  IM1       253             0.0000000000
     11126       523  IM1       C3            -14.4017523154       -6.8967325305       -3.9358869566  IM1       253             0.0000000000
     11127       523  IM1       DC3           -14.3875742641       -6.9084841183       -3.8999517859  IM1       253             0.0000000000
     11128       523  IM1       H5            -13.6699569660       -7.6747672753       -3.7569274573  IM1       253             0.0000000000
     11129       523  IM1       C4            -16.1386772522       -5.9961857908       -4.8726188402  IM1       253             0.0000000000
     11130       523  IM1       DC4           -16.1317938916       -5.9926564132       -4.8486504526  IM1       253             0.0000000000
     11131       523  IM1       H6            -17.0181136153       -5.8147927364       -5.4905089955  IM1       253             0.0000000000
     11132       523  IM1       N2            -15.4523457416       -7.1357155248       -4.8002530099  IM1       253             0.0000000000
     11133       523  IM1       DN2           -15.4434794318       -7.1285854763       -4.7729759918  IM1       253             0.0000000000
     11134       523  IM1       H7            -15.6355185205       -7.9749030510       -5.3123194402  IM1       253             0.0000000000
     11135       523  IM1       LPN21         -15.5193871254       -7.3892463785       -4.9459498152  IM1       253             0.0000000000
     11136       524  IM1       C1            -24.0853792153       19.7698222796       15.7454131715  IM1       254             0.0000000000
     11137       524  IM1       DC1           -24.0904242567       19.8099412329       15.6999798370  IM1       254             0.0000000000
     11138       524  IM1       H1            -24.3119035864       20.6636104907       16.3652118024  IM1       254             0.0000000000
     11139       524  IM1       H2            -23.5384959348       19.0341238123       16.3730973635  IM1       254             0.0000000000
     11140       524  IM1       H3            -25.0327915970       19.3011680818       15.4032231326  IM1       254             0.0000000000
     11141       524  IM1       N1            -23.2714626715       20.1127830659       14.6215471298  IM1       254             0.0000000000
     11142       524  IM1       DN1           -23.2671360188       20.1333412561       14.5952560893  IM1       254             0.0000000000
     11143       524  IM1       C2            -22.8430269633       21.3812669851       14.2940223710  IM1       254             0.0000000000
     11144       524  IM1       DC2           -22.8656606526       21.3948304028       14.2854722417  IM1       254             0.0000000000
     11145       524  IM1       H4            -22.9909288962       22.2427084901       14.9335007146  IM1       254             0.0000000000
     11146       524  IM1       C3            -22.0950778434       21.2441397733       13.1654823439  IM1       254             0.0000000000
     11147       524  IM1       DC3           -22.1034054928       21.2602545728       13.1522499122  IM1       254             0.0000000000
     11148       524  IM1       H5            -21.5098223283       21.9758117319       12.6223238706  IM1       254             0.0000000000
     11149       524  IM1       C4            -22.7917998669       19.2573185734       13.6839006958  IM1       254             0.0000000000
     11150       524  IM1       DC4           -22.8106366981       19.2786125004       13.6841108966  IM1       254             0.0000000000
     11151       524  IM1       H6            -22.9447808270       18.1785678152       13.7154225548  IM1       254             0.0000000000
     11152       524  IM1       N2            -22.0898981988       19.9229830886       12.7650570887  IM1       254             0.0000000000
     11153       524  IM1       DN2           -22.0996753764       19.9427676941       12.7645608725  IM1       254             0.0000000000
     11154       524  IM1       H7            -21.5903251473       19.5247365251       11.9957545208  IM1       254             0.0000000000
     11155       524  IM1       LPN21         -21.9601003474       19.8025917704       12.5228620262  IM1       254             0.0000000000
     11156       525  IM1       C1             17.1614690014       -5.5913469034       23.5598451130  IM1       255             0.0000000000
     11157       525  IM1       DC1            17.1785604120       -5.5612081140       23.5590946971  IM1       255             0.0000000000
     11158       525  IM1       H1             16.3422443334       -4.8976341524       23.8461221862  IM1       255             0.0000000000
     11159       525  IM1       H2             17.1391921307       -6.4818629502       24.2237772705  IM1       255             0.0000000000
     11160       525  IM1       H3             17.0266503086       -5.9029577044       22.5019965273  IM1       255             0.0000000000
     11161       525  IM1       N1             18.4300698483       -4.9495817577       23.6913913415  IM1       255             0.0000000000
     11162       525  IM1       DN1            18.4532216113       -4.9346899228       23.6957498060  IM1       255             0.0000000000
     11163       525  IM1       C2             18.6418982503       -3.6751440165       24.1646469564  IM1       255             0.0000000000
     11164       525  IM1       DC2            18.6583448093       -3.6832753357       24.1698691810  IM1       255             0.0000000000
     11165       525  IM1       H4             17.8491938170       -2.9918540495       24.4432569052  IM1       255             0.0000000000
     11166       525  IM1       C3             19.9804151842       -3.4682234614       24.0962504553  IM1       255             0.0000000000
     11167       525  IM1       DC3            20.0186353803       -3.4824722110       24.1173850084  IM1       255             0.0000000000
     11168       525  IM1       H5             20.5542073826       -2.5828031008       24.3405500633  IM1       255             0.0000000000
     11169       525  IM1       C4             19.6367297451       -5.4810733257       23.3741545091  IM1       255             0.0000000000
     11170       525  IM1       DC4            19.6420710897       -5.4627901925       23.3888073777  IM1       255             0.0000000000
     11171       525  IM1       H6             19.7601407783       -6.4868951904       22.9726671562  IM1       255             0.0000000000
     11172       525  IM1       N2             20.6120598190       -4.6049596437       23.6229785608  IM1       255             0.0000000000
     11173       525  IM1       DN2            20.6353144916       -4.6054538891       23.6361774398  IM1       255             0.0000000000
     11174       525  IM1       H7             21.5920425300       -4.7343778975       23.4717013261  IM1       255             0.0000000000
     11175       525  IM1       LPN21          20.9054053441       -4.6525850773       23.5819880622  IM1       255             0.0000000000
     11176       526  IM1       C1             21.6158762341       27.4876431370       23.4018522743  IM1       256             0.0000000000
     11177       526  IM1       DC1            21.5961704200       27.4797267760       23.4127378144  IM1       256             0.0000000000
     11178       526  IM1       H1             20.9601556061       26.7725996210       23.9432063435  IM1       256             0.0000000000
     11179       526  IM1       H2             21.4152227675       27.4266809717       22.3108239509  IM1       256             0.0000000000
     11180       526  IM1       H3             21.4583771904       28.5159274015       23.7919119148  IM1       256             0.0000000000
     11181       526  IM1       N1             22.9735295018       27.1359358486       23.5683568871  IM1       256             0.0000000000
     11182       526  IM1       DN1            22.9628359045       27.1507589008       23.5603445717  IM1       256             0.0000000000
     11183       526  IM1       C2             23.4089252222       25.9424000207       24.0789778657  IM1       256             0.0000000000
     11184       526  IM1       DC2            23.3770823138       25.9645146954       24.0635118802  IM1       256             0.0000000000
     11185       526  IM1       H4             22.7606093955       25.1246771371       24.3686412470  IM1       256             0.0000000000
     11186       526  IM1       C3             24.7573949180       26.0619597462       24.1996454420  IM1       256             0.0000000000
     11187       526  IM1       DC3            24.7423069607       26.0674293876       24.1832547320  IM1       256             0.0000000000
     11188       526  IM1       H5             25.4789087322       25.3610167418       24.6008757009  IM1       256             0.0000000000
     11189       526  IM1       C4             24.0556581752       27.9182124976       23.3358313903  IM1       256             0.0000000000
     11190       526  IM1       DC4            24.0399520789       27.9090223492       23.3392172694  IM1       256             0.0000000000
     11191       526  IM1       H6             24.0052002189       28.9064162326       22.8786581489  IM1       256             0.0000000000
     11192       526  IM1       N2             25.1664250340       27.2918568499       23.7104438262  IM1       256             0.0000000000
     11193       526  IM1       DN2            25.1655450436       27.2878369141       23.7067053611  IM1       256             0.0000000000
     11194       526  IM1       H7             26.1027249202       27.6358739481       23.6397702165  IM1       256             0.0000000000
     11195       526  IM1       LPN21          25.4445429603       27.4023546753       23.6894521706  IM1       256             0.0000000000
     11196       527  IM1       C1             -7.5680048107      -21.4958182348        1.1809038370  IM1       257             0.0000000000
     11197       527  IM1       DC1            -7.5852680581      -21.4501297014        1.1617028666  IM1       257             0.0000000000
     11198       527  IM1       H1             -6.7319788185      -20.7649469830        1.1461366955  IM1       257             0.0000000000
     11199       527  IM1       H2             -8.2300850490      -21.3878646562        0.2952872253  IM1       257             0.0000000000
     11200       527  IM1       H3             -7.1373890646      -22.5199551796        1.1867858765  IM1       257             0.0000000000
     11201       527  IM1       N1             -8.3305269630      -21.3172993380        2.3872679768  IM1       257             0.0000000000
     11202       527  IM1       DN1            -8.3448446154      -21.3073823590        2.3710375364  IM1       257             0.0000000000
     11203       527  IM1       C2             -8.1243428039      -20.3567115474        3.3606255326  IM1       257             0.0000000000
     11204       527  IM1       DC2            -8.1278736910      -20.3356491088        3.3213053577  IM1       257             0.0000000000
     11205       527  IM1       H4             -7.3107790383      -19.6423679671        3.3338627107  IM1       257             0.0000000000
     11206       527  IM1       C3             -8.9598740146      -20.6825650542        4.3874246749  IM1       257             0.0000000000
     11207       527  IM1       DC3            -8.9500371125      -20.6571351201        4.3692664878  IM1       257             0.0000000000
     11208       527  IM1       H5             -9.0486487392      -20.2626515316        5.3817489087  IM1       257             0.0000000000
     11209       527  IM1       C4             -9.2924875530      -22.1597367537        2.8353761154  IM1       257             0.0000000000
     11210       527  IM1       DC4            -9.2818857249      -22.1412750101        2.8181074859  IM1       257             0.0000000000
     11211       527  IM1       H6             -9.6444255031      -23.0302277730        2.2817651828  IM1       257             0.0000000000
     11212       527  IM1       N2             -9.7168096982      -21.7855995567        4.0374386264  IM1       257             0.0000000000
     11213       527  IM1       DN2            -9.7057770002      -21.7666992666        4.0224329348  IM1       257             0.0000000000
     11214       527  IM1       H7            -10.3871209064      -22.2608829485        4.6073408836  IM1       257             0.0000000000
     11215       527  IM1       LPN21          -9.9343977948      -21.9198934219        4.1943480842  IM1       257             0.0000000000
     11216       528  IM1       C1             23.3849264841      -13.5496330696      -16.8180339008  IM1       258             0.0000000000
     11217       528  IM1       DC1            23.4222025534      -13.5102096289      -16.7715014570  IM1       258             0.0000000000
     11218       528  IM1       H1             24.4921545384      -13.4811081302      -16.8786257258  IM1       258             0.0000000000
     11219       528  IM1       H2             23.0172393712      -13.1625650618      -15.8437107798  IM1       258             0.0000000000
     11220       528  IM1       H3             22.9348081680      -12.9967550949      -17.6701139724  IM1       258             0.0000000000
     11221       528  IM1       N1             22.9742319587      -14.9060075702      -16.9261562566  IM1       258             0.0000000000
     11222       528  IM1       DN1            22.9875806059      -14.8708190527      -16.8987250004  IM1       258             0.0000000000
     11223       528  IM1       C2             23.8200918619      -15.9687001218      -17.1313769202  IM1       258             0.0000000000
     11224       528  IM1       DC2            23.8407107264      -15.9335853377      -17.0727008849  IM1       258             0.0000000000
     11225       528  IM1       H4             24.8564240628      -15.8690053084      -17.4296477929  IM1       258             0.0000000000
     11226       528  IM1       C3             23.0424963799      -17.0842853333      -17.0292141022  IM1       258             0.0000000000
     11227       528  IM1       DC3            23.0765304345      -17.0862066454      -16.9765886980  IM1       258             0.0000000000
     11228       528  IM1       H5             23.3022229838      -18.1266587037      -17.1666508073  IM1       258             0.0000000000
     11229       528  IM1       C4             21.7343914520      -15.3984427599      -16.6768423409  IM1       258             0.0000000000
     11230       528  IM1       DC4            21.7695312035      -15.3833145577      -16.6532203101  IM1       258             0.0000000000
     11231       528  IM1       H6             20.8442871289      -14.7770769563      -16.5782582037  IM1       258             0.0000000000
     11232       528  IM1       N2             21.7551139550      -16.7316177255      -16.6656074415  IM1       258             0.0000000000
     11233       528  IM1       DN2            21.7717083103      -16.7337125824      -16.6390324119  IM1       258             0.0000000000
     11234       528  IM1       H7             20.9616194125      -17.3360094853      -16.5943542893  IM1       258             0.0000000000
     11235       528  IM1       LPN21          21.5240949431      -16.9103815978      -16.5972430198  IM1       258             0.0000000000
     11236       529  IM1       C1            -14.6368637353       25.0313765847       12.0848892129  IM1       259             0.0000000000
     11237       529  IM1       DC1           -14.6551059585       25.0418834782       12.0819871961  IM1       259             0.0000000000
     11238       529  IM1       H1            -15.4518700236       25.7857252870       12.0525815184  IM1       259             0.0000000000
     11239       529  IM1       H2            -14.7514786352       24.3928322435       12.9868013760  IM1       259             0.0000000000
     11240       529  IM1       H3            -14.6738991858       24.4033113494       11.1692018014  IM1       259             0.0000000000
     11241       529  IM1       N1            -13.3632607516       25.6832866227       12.1380206251  IM1       259             0.0000000000
     11242       529  IM1       DN1           -13.3744104597       25.6772539618       12.1343825036  IM1       259             0.0000000000
     11243       529  IM1       C2            -13.1511877844       27.0442071994       12.0872059908  IM1       259             0.0000000000
     11244       529  IM1       DC2           -13.1724271164       27.0268513649       12.0778506690  IM1       259             0.0000000000
     11245       529  IM1       H4            -13.9421479767       27.7826973546       12.0435795666  IM1       259             0.0000000000
     11246       529  IM1       C3            -11.8081682189       27.2165985928       12.2441909005  IM1       259             0.0000000000
     11247       529  IM1       DC3           -11.8156517836       27.2284221450       12.2291843278  IM1       259             0.0000000000
     11248       529  IM1       H5            -11.2318147368       28.1275715228       12.3482773282  IM1       259             0.0000000000
     11249       529  IM1       C4            -12.1590122211       25.0800760249       12.3054797744  IM1       259             0.0000000000
     11250       529  IM1       DC4           -12.1828649825       25.0898984599       12.2969177683  IM1       259             0.0000000000
     11251       529  IM1       H6            -12.0286234453       24.0013104170       12.3912907889  IM1       259             0.0000000000
     11252       529  IM1       N2            -11.1854979320       25.9878660971       12.3643899807  IM1       259             0.0000000000
     11253       529  IM1       DN2           -11.1919242137       25.9978798507       12.3570907266  IM1       259             0.0000000000
     11254       529  IM1       H7            -10.2139932823       25.8107476809       12.5218948445  IM1       259             0.0000000000
     11255       529  IM1       LPN21         -10.8931584702       25.9290324509       12.3971960952  IM1       259             0.0000000000
     11256       530  IM1       C1            -17.1091738764       19.0043984974       25.5352466594  IM1       260             0.0000000000
     11257       530  IM1       DC1           -17.1174525691       19.0051947975       25.5688754275  IM1       260             0.0000000000
     11258       530  IM1       H1            -18.1108773653       18.5927249931       25.7831096191  IM1       260             0.0000000000
     11259       530  IM1       H2            -16.6413628086       18.3844743984       24.7407858885  IM1       260             0.0000000000
     11260       530  IM1       H3            -17.2191816678       20.0516793545       25.1810968415  IM1       260             0.0000000000
     11261       530  IM1       N1            -16.2658420620       19.0007188163       26.6902979957  IM1       260             0.0000000000
     11262       530  IM1       DN1           -16.2775173384       18.9971017714       26.7200768535  IM1       260             0.0000000000
     11263       530  IM1       C2            -16.7029328376       18.7901668458       27.9779132501  IM1       260             0.0000000000
     11264       530  IM1       DC2           -16.7164954298       18.7932017894       27.9906926661  IM1       260             0.0000000000
     11265       530  IM1       H4            -17.6934749303       18.4302634377       28.2272822526  IM1       260             0.0000000000
     11266       530  IM1       C3            -15.6420746009       19.0821074968       28.7747720773  IM1       260             0.0000000000
     11267       530  IM1       DC3           -15.6557093894       19.0761642717       28.8132558188  IM1       260             0.0000000000
     11268       530  IM1       H5            -15.5493317981       19.0793807816       29.8537903063  IM1       260             0.0000000000
     11269       530  IM1       C4            -14.9704382248       19.4100067356       26.7526458523  IM1       260             0.0000000000
     11270       530  IM1       DC4           -15.0065311316       19.3971901129       26.7701887468  IM1       260             0.0000000000
     11271       530  IM1       H6            -14.3726076261       19.6821884581       25.8828092670  IM1       260             0.0000000000
     11272       530  IM1       N2            -14.5587631822       19.4507972556       28.0212435683  IM1       260             0.0000000000
     11273       530  IM1       DN2           -14.5815613334       19.4402678671       28.0425985788  IM1       260             0.0000000000
     11274       530  IM1       H7            -13.6523148170       19.7118992118       28.3531729737  IM1       260             0.0000000000
     11275       530  IM1       LPN21         -14.2841679486       19.5260130184       28.1157953887  IM1       260             0.0000000000
     11276       531  IM1       C1             24.6368809912      -22.5894368786       -6.5912540636  IM1       261             0.0000000000
     11277       531  IM1       DC1            24.6517595055      -22.5854148584       -6.5859505777  IM1       261             0.0000000000
     11278       531  IM1       H1             25.3229980905      -21.8459853356       -7.0504317298  IM1       261             0.0000000000
     11279       531  IM1       H2             24.1024269080      -22.1214716397       -5.7370360771  IM1       261             0.0000000000
     11280       531  IM1       H3             23.9060495018      -22.9383317190       -7.3518319520  IM1       261             0.0000000000
     11281       531  IM1       N1             25.3814130517      -23.7165543525       -6.1135140193  IM1       261             0.0000000000
     11282       531  IM1       DN1            25.3731555644      -23.7267027462       -6.1061010941  IM1       261             0.0000000000
     11283       531  IM1       C2             26.7486614904      -23.8777128573       -6.1809567286  IM1       261             0.0000000000
     11284       531  IM1       DC2            26.7276578520      -23.8724622514       -6.1843440222  IM1       261             0.0000000000
     11285       531  IM1       H4             27.4254904748      -23.1633163736       -6.6330951919  IM1       261             0.0000000000
     11286       531  IM1       C3             27.0182892256      -25.0679455856       -5.5759333713  IM1       261             0.0000000000
     11287       531  IM1       DC3            26.9996306882      -25.0739682521       -5.5684764556  IM1       261             0.0000000000
     11288       531  IM1       H5             27.9630892719      -25.5755366202       -5.4256229789  IM1       261             0.0000000000
     11289       531  IM1       C4             24.8681364222      -24.7964814827       -5.4746956291  IM1       261             0.0000000000
     11290       531  IM1       DC4            24.8758076687      -24.7930495301       -5.4702225993  IM1       261             0.0000000000
     11291       531  IM1       H6             23.8023509945      -24.9428142038       -5.2992300861  IM1       261             0.0000000000
     11292       531  IM1       N2             25.8417933507      -25.6281930051       -5.1046605090  IM1       261             0.0000000000
     11293       531  IM1       DN2            25.8430595412      -25.6241988614       -5.0645707747  IM1       261             0.0000000000
     11294       531  IM1       H7             25.7301297829      -26.5135783070       -4.6534132211  IM1       261             0.0000000000
     11295       531  IM1       LPN21          25.8046155414      -25.8829585051       -4.9506723583  IM1       261             0.0000000000
     11296       532  IM1       C1             19.1542381472       18.6276757557        8.1355940686  IM1       262             0.0000000000
     11297       532  IM1       DC1            19.1765578322       18.5927346097        8.1301987135  IM1       262             0.0000000000
     11298       532  IM1       H1             19.9005313372       19.4504050875        8.1135958266  IM1       262             0.0000000000
     11299       532  IM1       H2             18.5259177694       18.7496279426        9.0437031851  IM1       262             0.0000000000
     11300       532  IM1       H3             18.5245625357       18.6865379218        7.2221583184  IM1       262             0.0000000000
     11301       532  IM1       N1             19.8051823575       17.3517598745        8.1687263999  IM1       262             0.0000000000
     11302       532  IM1       DN1            19.8302466803       17.3293239082        8.1694523915  IM1       262             0.0000000000
     11303       532  IM1       C2             21.1435966512       17.1375800853        7.9298097726  IM1       262             0.0000000000
     11304       532  IM1       DC2            21.1519298162       17.1265599749        7.9321678955  IM1       262             0.0000000000
     11305       532  IM1       H4             21.8331949804       17.9372601592        7.6892792677  IM1       262             0.0000000000
     11306       532  IM1       C3             21.3683838179       15.8224705891        8.1615509943  IM1       262             0.0000000000
     11307       532  IM1       DC3            21.3812120530       15.7989477973        8.1621465905  IM1       262             0.0000000000
     11308       532  IM1       H5             22.2986439260       15.2681102770        8.1477750882  IM1       262             0.0000000000
     11309       532  IM1       C4             19.2558834764       16.1613476894        8.5147436216  IM1       262             0.0000000000
     11310       532  IM1       DC4            19.2785215450       16.1752154261        8.5239047358  IM1       262             0.0000000000
     11311       532  IM1       H6             18.1952835519       16.0215937767        8.7237810438  IM1       262             0.0000000000
     11312       532  IM1       N2             20.1902549763       15.2042568144        8.5282820265  IM1       262             0.0000000000
     11313       532  IM1       DN2            20.2074333793       15.2018369279        8.5303978765  IM1       262             0.0000000000
     11314       532  IM1       H7             20.0545780887       14.2412625390        8.7611635588  IM1       262             0.0000000000
     11315       532  IM1       LPN21          20.1455813046       14.9158870257        8.5979033449  IM1       262             0.0000000000
     11316       533  IM1       C1              5.0081919202       -8.7313866640        5.3459446025  IM1       263             0.0000000000
     11317       533  IM1       DC1             5.0192273949       -8.7524044901        5.3393883777  IM1       263             0.0000000000
     11318       533  IM1       H1              5.2554199888       -9.7309052345        5.7632717037  IM1       263             0.0000000000
     11319       533  IM1       H2              5.0623937854       -7.9690242936        6.1522862009  IM1       263             0.0000000000
     11320       533  IM1       H3              5.7193881207       -8.4674472912        4.5342445521  IM1       263             0.0000000000
     11321       533  IM1       N1              3.6812288088       -8.7417884038        4.8067523146  IM1       263             0.0000000000
     11322       533  IM1       DN1             3.6933270369       -8.7426580581        4.8080293763  IM1       263             0.0000000000
     11323       533  IM1       C2              2.8988826295       -9.8578061324        4.5946583675  IM1       263             0.0000000000
     11324       533  IM1       DC2             2.9332505438       -9.8535680387        4.5972529972  IM1       263             0.0000000000
     11325       533  IM1       H4              3.1495397205      -10.8549708540        4.9348385269  IM1       263             0.0000000000
     11326       533  IM1       C3              1.7805556769       -9.4157794658        3.9523621568  IM1       263             0.0000000000
     11327       533  IM1       DC3             1.8008603139       -9.4253590445        3.9540350679  IM1       263             0.0000000000
     11328       533  IM1       H5              0.9043809659       -9.9542858905        3.6129248162  IM1       263             0.0000000000
     11329       533  IM1       C4              3.0299261918       -7.6759577044        4.2825968466  IM1       263             0.0000000000
     11330       533  IM1       DC4             3.0467227002       -7.7026060449        4.2915335462  IM1       263             0.0000000000
     11331       533  IM1       H6              3.4364866610       -6.6650309710        4.2536879412  IM1       263             0.0000000000
     11332       533  IM1       N2              1.8722224272       -8.0535323057        3.7455619915  IM1       263             0.0000000000
     11333       533  IM1       DN2             1.8834637752       -8.0711807896        3.7431410450  IM1       263             0.0000000000
     11334       533  IM1       H7              1.2140856583       -7.4617207430        3.2801427529  IM1       263             0.0000000000
     11335       533  IM1       LPN21           1.6761395746       -7.8723453629        3.6087306841  IM1       263             0.0000000000
     11336       534  IM1       C1             18.8939079257      -24.7747585120      -25.0629117140  IM1       264             0.0000000000
     11337       534  IM1       DC1            18.8840917710      -24.7880618711      -25.0842302726  IM1       264             0.0000000000
     11338       534  IM1       H1             18.0741560615      -25.2533007028      -25.6402549868  IM1       264             0.0000000000
     11339       534  IM1       H2             18.7735976084      -23.6704219732      -25.0798597355  IM1       264             0.0000000000
     11340       534  IM1       H3             18.8734800022      -25.1345184437      -24.0119709483  IM1       264             0.0000000000
     11341       534  IM1       N1             20.1641302971      -25.1094638163      -25.6322450278  IM1       264             0.0000000000
     11342       534  IM1       DN1            20.1622160984      -25.1156486217      -25.6420328062  IM1       264             0.0000000000
     11343       534  IM1       C2             20.3756725097      -25.8719459383      -26.7629935958  IM1       264             0.0000000000
     11344       534  IM1       DC2            20.3528092361      -25.8754576643      -26.7616322359  IM1       264             0.0000000000
     11345       534  IM1       H4             19.5836638817      -26.3159628819      -27.3532988450  IM1       264             0.0000000000
     11346       534  IM1       C3             21.7267708294      -25.9091000061      -26.9378374717  IM1       264             0.0000000000
     11347       534  IM1       DC3            21.7150866883      -25.9194362802      -26.9441290719  IM1       264             0.0000000000
     11348       534  IM1       H5             22.3201302250      -26.3918437359      -27.7045004478  IM1       264             0.0000000000
     11349       534  IM1       C4             21.3739189016      -24.7149291432      -25.1627848717  IM1       264             0.0000000000
     11350       534  IM1       DC4            21.3526425483      -24.7239760858      -25.1794314001  IM1       264             0.0000000000
     11351       534  IM1       H6             21.5038369902      -24.0951972735      -24.2755680436  IM1       264             0.0000000000
     11352       534  IM1       N2             22.3504666879      -25.1890265036      -25.9359613353  IM1       264             0.0000000000
     11353       534  IM1       DN2            22.3425596447      -25.1983576163      -25.9462785714  IM1       264             0.0000000000
     11354       534  IM1       H7             23.3318310069      -25.0393075625      -25.8155108788  IM1       264             0.0000000000
     11355       534  IM1       LPN21          22.6440589823      -25.1438677618      -25.8939583270  IM1       264             0.0000000000
     11356       535  IM1       C1             21.7539790100      -22.8071663240      -17.7351419652  IM1       265             0.0000000000
     11357       535  IM1       DC1            21.7681398296      -22.8056941218      -17.7140727164  IM1       265             0.0000000000
     11358       535  IM1       H1             21.6504718700      -22.2007232258      -16.8100289772  IM1       265             0.0000000000
     11359       535  IM1       H2             21.0934066994      -22.3817456008      -18.5206242580  IM1       265             0.0000000000
     11360       535  IM1       H3             22.8049713290      -22.7925925595      -18.0950360490  IM1       265             0.0000000000
     11361       535  IM1       N1             21.3724466821      -24.1653869967      -17.4768268210  IM1       265             0.0000000000
     11362       535  IM1       DN1            21.3785043815      -24.1701205093      -17.4708889988  IM1       265             0.0000000000
     11363       535  IM1       C2             20.7317512670      -24.6151227244      -16.3426774958  IM1       265             0.0000000000
     11364       535  IM1       DC2            20.7429243553      -24.6061406313      -16.3402409680  IM1       265             0.0000000000
     11365       535  IM1       H4             20.5309208929      -23.9909059319      -15.4807554826  IM1       265             0.0000000000
     11366       535  IM1       C3             20.4302253594      -25.9223565379      -16.5782080553  IM1       265             0.0000000000
     11367       535  IM1       DC3            20.4311036833      -25.9266321692      -16.5710769902  IM1       265             0.0000000000
     11368       535  IM1       H5             19.9073596336      -26.6391055366      -15.9571031465  IM1       265             0.0000000000
     11369       535  IM1       C4             21.4432873855      -25.2017136849      -18.3520474446  IM1       265             0.0000000000
     11370       535  IM1       DC4            21.4445235456      -25.1910796143      -18.3347447255  IM1       265             0.0000000000
     11371       535  IM1       H6             21.8566302027      -25.1134364826      -19.3567637483  IM1       265             0.0000000000
     11372       535  IM1       N2             20.8857914559      -26.2941214258      -17.8312316917  IM1       265             0.0000000000
     11373       535  IM1       DN2            20.8843463219      -26.2971649068      -17.8244178135  IM1       265             0.0000000000
     11374       535  IM1       H7             20.7707074376      -27.1784096835      -18.2837689233  IM1       265             0.0000000000
     11375       535  IM1       LPN21          20.8671728762      -26.5619027735      -17.9651962329  IM1       265             0.0000000000
     11376       536  IM1       C1            -27.4380225770      -18.7929781132       23.0258143641  IM1       266             0.0000000000
     11377       536  IM1       DC1           -27.4521057072      -18.8028113081       23.0162613886  IM1       266             0.0000000000
     11378       536  IM1       H1            -28.3915451174      -18.3851254586       22.6273523473  IM1       266             0.0000000000
     11379       536  IM1       H2            -26.6402849355      -18.6816856973       22.2606022010  IM1       266             0.0000000000
     11380       536  IM1       H3            -27.1573759919      -18.2426488050       23.9492298431  IM1       266             0.0000000000
     11381       536  IM1       N1            -27.5889719512      -20.1820336835       23.3459803050  IM1       266             0.0000000000
     11382       536  IM1       DN1           -27.5998304046      -20.1907988690       23.3398280597  IM1       266             0.0000000000
     11383       536  IM1       C2            -28.7286367691      -20.9366860657       23.1552345379  IM1       266             0.0000000000
     11384       536  IM1       DC2           -28.7511747095      -20.9153697234       23.1322480222  IM1       266             0.0000000000
     11385       536  IM1       H4            -29.6601514900      -20.5136871545       22.7999300966  IM1       266             0.0000000000
     11386       536  IM1       C3            -28.4135842120      -22.1964306956       23.5695288671  IM1       266             0.0000000000
     11387       536  IM1       DC3           -28.4345807080      -22.1824441926       23.5511564973  IM1       266             0.0000000000
     11388       536  IM1       H5            -29.0160178947      -23.0951239476       23.6176235329  IM1       266             0.0000000000
     11389       536  IM1       C4            -26.6325553056      -20.9947603518       23.8583584317  IM1       266             0.0000000000
     11390       536  IM1       DC4           -26.6490810364      -20.9746426327       23.8378299473  IM1       266             0.0000000000
     11391       536  IM1       H6            -25.6289916044      -20.6630430542       24.1246731554  IM1       266             0.0000000000
     11392       536  IM1       N2            -27.1009949575      -22.2319206585       23.9963584579  IM1       266             0.0000000000
     11393       536  IM1       DN2           -27.1232482711      -22.2174062574       23.9827178050  IM1       266             0.0000000000
     11394       536  IM1       H7            -26.6029438781      -23.0182666953       24.3618786816  IM1       266             0.0000000000
     11395       536  IM1       LPN21         -26.9454228338      -22.4663691451       24.1004316121  IM1       266             0.0000000000
     11396       537  IM1       C1             -5.1449084361      -18.0541555497      -17.9143890163  IM1       267             0.0000000000
     11397       537  IM1       DC1            -5.1324274570      -18.0485179052      -17.8847554964  IM1       267             0.0000000000
     11398       537  IM1       H1             -4.4318626602      -18.9059251711      -17.9337600124  IM1       267             0.0000000000
     11399       537  IM1       H2             -4.9701625532      -17.4332629843      -17.0098022053  IM1       267             0.0000000000
     11400       537  IM1       H3             -5.0137471470      -17.4434623920      -18.8331771229  IM1       267             0.0000000000
     11401       537  IM1       N1             -6.4884199076      -18.5471037171      -17.8889214616  IM1       267             0.0000000000
     11402       537  IM1       DN1            -6.4874934768      -18.5084809578      -17.8719894997  IM1       267             0.0000000000
     11403       537  IM1       C2             -6.8932627293      -19.8604810241      -17.8851207272  IM1       267             0.0000000000
     11404       537  IM1       DC2            -6.8656223700      -19.8069296076      -17.8686088674  IM1       267             0.0000000000
     11405       537  IM1       H4             -6.2292103971      -20.7135582243      -17.9497952238  IM1       267             0.0000000000
     11406       537  IM1       C3             -8.2595684097      -19.8368147948      -17.8629188191  IM1       267             0.0000000000
     11407       537  IM1       DC3            -8.2416161468      -19.7936927550      -17.8346182406  IM1       267             0.0000000000
     11408       537  IM1       H5             -8.9663333642      -20.6568211236      -17.8939336759  IM1       267             0.0000000000
     11409       537  IM1       C4             -7.5971137926      -17.7752944722      -17.8473091389  IM1       267             0.0000000000
     11410       537  IM1       DC4            -7.5965987320      -17.7664499338      -17.8208017073  IM1       267             0.0000000000
     11411       537  IM1       H6             -7.5599946359      -16.6859270449      -17.8481906861  IM1       267             0.0000000000
     11412       537  IM1       N2             -8.6967854864      -18.5168200292      -17.7969927027  IM1       267             0.0000000000
     11413       537  IM1       DN2            -8.7047943872      -18.4914761095      -17.7791338852  IM1       267             0.0000000000
     11414       537  IM1       H7             -9.6421695264      -18.1908662435      -17.7952188199  IM1       267             0.0000000000
     11415       537  IM1       LPN21          -8.9768364765      -18.4113557563      -17.7758094514  IM1       267             0.0000000000
     11416       538  IM1       C1            -26.0990254280      -14.3583075931       -3.5286081380  IM1       268             0.0000000000
     11417       538  IM1       DC1           -26.0849143179      -14.3524643871       -3.5487172868  IM1       268             0.0000000000
     11418       538  IM1       H1            -26.0806104214      -13.2474752378       -3.5343844714  IM1       268             0.0000000000
     11419       538  IM1       H2            -26.6096242708      -14.7149830118       -2.6086122307  IM1       268             0.0000000000
     11420       538  IM1       H3            -26.6296972080      -14.7328914793       -4.4299379193  IM1       268             0.0000000000
     11421       538  IM1       N1            -24.7680887811      -14.8708359373       -3.5341022682  IM1       268             0.0000000000
     11422       538  IM1       DN1           -24.7621132243      -14.8764606454       -3.5453795588  IM1       268             0.0000000000
     11423       538  IM1       C2            -23.6155880354      -14.1355324718       -3.3652778050  IM1       268             0.0000000000
     11424       538  IM1       DC2           -23.6370448498      -14.1331787793       -3.3842821306  IM1       268             0.0000000000
     11425       538  IM1       H4            -23.5972062685      -13.0691013598       -3.1774592912  IM1       268             0.0000000000
     11426       538  IM1       C3            -22.5960883880      -15.0371319932       -3.4129624902  IM1       268             0.0000000000
     11427       538  IM1       DC3           -22.5993120091      -15.0161570400       -3.4413837859  IM1       268             0.0000000000
     11428       538  IM1       H5            -21.5304671536      -14.8933347280       -3.2838782873  IM1       268             0.0000000000
     11429       538  IM1       C4            -24.4159257862      -16.1695481140       -3.7017738898  IM1       268             0.0000000000
     11430       538  IM1       DC4           -24.4198825829      -16.1528662167       -3.7108568096  IM1       268             0.0000000000
     11431       538  IM1       H6            -25.1286961266      -16.9894326017       -3.7903620862  IM1       268             0.0000000000
     11432       538  IM1       N2            -23.0953030336      -16.2971967567       -3.6842873941  IM1       268             0.0000000000
     11433       538  IM1       DN2           -23.1024494841      -16.2781420240       -3.7050025127  IM1       268             0.0000000000
     11434       538  IM1       H7            -22.5738194676      -17.1495002886       -3.7247049633  IM1       268             0.0000000000
     11435       538  IM1       LPN21         -22.9443957593      -16.5522463256       -3.7309426398  IM1       268             0.0000000000
     11436       539  IM1       C1             27.2090947594      -13.5442128639      -13.3173927693  IM1       269             0.0000000000
     11437       539  IM1       DC1            27.2181370217      -13.5332839987      -13.3025257606  IM1       269             0.0000000000
     11438       539  IM1       H1             27.9313400393      -13.5224670328      -14.1613180474  IM1       269             0.0000000000
     11439       539  IM1       H2             26.1925220001      -13.7080723190      -13.7345868536  IM1       269             0.0000000000
     11440       539  IM1       H3             27.4772085389      -14.3636103104      -12.6166618459  IM1       269             0.0000000000
     11441       539  IM1       N1             27.2220600892      -12.2944882609      -12.6116107446  IM1       269             0.0000000000
     11442       539  IM1       DN1            27.2215835519      -12.2908253506      -12.5899794455  IM1       269             0.0000000000
     11443       539  IM1       C2             28.0070646446      -11.2157362481      -12.9404416221  IM1       269             0.0000000000
     11444       539  IM1       DC2            28.0101193154      -11.2364054723      -12.9109577472  IM1       269             0.0000000000
     11445       539  IM1       H4             28.7457435301      -11.2348701739      -13.7321968854  IM1       269             0.0000000000
     11446       539  IM1       C3             27.5082412707      -10.1552497533      -12.2439983203  IM1       269             0.0000000000
     11447       539  IM1       DC3            27.5277893050      -10.1680783916      -12.2029901206  IM1       269             0.0000000000
     11448       539  IM1       H5             27.7821850695       -9.1082591778      -12.2846742345  IM1       269             0.0000000000
     11449       539  IM1       C4             26.3146278104      -11.8727710655      -11.6960880142  IM1       269             0.0000000000
     11450       539  IM1       DC4            26.3241499824      -11.8705743540      -11.6928743551  IM1       269             0.0000000000
     11451       539  IM1       H6             25.5880463623      -12.5283722295      -11.2161228977  IM1       269             0.0000000000
     11452       539  IM1       N2             26.4750799579      -10.5799823373      -11.4257773466  IM1       269             0.0000000000
     11453       539  IM1       DN2            26.4809432933      -10.5785491592      -11.4077330685  IM1       269             0.0000000000
     11454       539  IM1       H7             25.9250910338      -10.0236141036      -10.8029077200  IM1       269             0.0000000000
     11455       539  IM1       LPN21          26.3157193068      -10.4215417575      -11.2270293516  IM1       269             0.0000000000
     11456       540  IM1       C1              5.1928412483      -11.2481040046      -17.5715903114  IM1       270             0.0000000000
     11457       540  IM1       DC1             5.1848736126      -11.2378147543      -17.5513577356  IM1       270             0.0000000000
     11458       540  IM1       H1              4.6845681681      -11.7169611764      -16.7020200564  IM1       270             0.0000000000
     11459       540  IM1       H2              6.2077267366      -10.9055444444      -17.2766642286  IM1       270             0.0000000000
     11460       540  IM1       H3              5.2685864337      -11.9894263760      -18.3956199280  IM1       270             0.0000000000
     11461       540  IM1       N1              4.4476199994      -10.1316848689      -18.0497165983  IM1       270             0.0000000000
     11462       540  IM1       DN1             4.4673834140      -10.1312478607      -18.0623290976  IM1       270             0.0000000000
     11463       540  IM1       C2              3.2950192068       -9.6030136188      -17.5119188499  IM1       270             0.0000000000
     11464       540  IM1       DC2             3.3334420797       -9.6570459348      -17.4784190636  IM1       270             0.0000000000
     11465       540  IM1       H4              2.7251448430      -10.0306717890      -16.6962959598  IM1       270             0.0000000000
     11466       540  IM1       C3              3.0038277428       -8.5060705777      -18.2676126282  IM1       270             0.0000000000
     11467       540  IM1       DC3             3.0255382331       -8.5753073066      -18.2567376161  IM1       270             0.0000000000
     11468       540  IM1       H5              2.1665616998       -7.8229156872      -18.1956823149  IM1       270             0.0000000000
     11469       540  IM1       C4              4.8156628556       -9.3597962179      -19.0965597369  IM1       270             0.0000000000
     11470       540  IM1       DC4             4.8352848927       -9.3678762660      -19.0907846456  IM1       270             0.0000000000
     11471       540  IM1       H6              5.6701177967       -9.5675509426      -19.7406441489  IM1       270             0.0000000000
     11472       540  IM1       N2              3.9705324059       -8.3618538782      -19.2576024548  IM1       270             0.0000000000
     11473       540  IM1       DN2             3.9787223857       -8.3797611631      -19.2577999663  IM1       270             0.0000000000
     11474       540  IM1       H7              3.9921881973       -7.6605830055      -19.9701683745  IM1       270             0.0000000000
     11475       540  IM1       LPN21           3.9930053864       -8.1511584169      -19.4699756823  IM1       270             0.0000000000
     11476       541  IM1       C1            -23.1523890888        1.6716535243       18.5602842421  IM1       271             0.0000000000
     11477       541  IM1       DC1           -23.1800330918        1.6642276472       18.5480840411  IM1       271             0.0000000000
     11478       541  IM1       H1            -23.7868035268        2.4500753777       18.0849961812  IM1       271             0.0000000000
     11479       541  IM1       H2            -23.5123531141        1.4918571362       19.5958614532  IM1       271             0.0000000000
     11480       541  IM1       H3            -23.1777221315        0.7386129835       17.9576943433  IM1       271             0.0000000000
     11481       541  IM1       N1            -21.8018690152        2.1277213049       18.6334921780  IM1       271             0.0000000000
     11482       541  IM1       DN1           -21.8147699512        2.0998508677       18.6415809360  IM1       271             0.0000000000
     11483       541  IM1       C2            -21.3402118736        3.3342027527       18.1740678272  IM1       271             0.0000000000
     11484       541  IM1       DC2           -21.3701271667        3.2881475967       18.1821892965  IM1       271             0.0000000000
     11485       541  IM1       H4            -21.9481876224        4.0754875941       17.6703305221  IM1       271             0.0000000000
     11486       541  IM1       C3            -20.0249774791        3.3970851023       18.5157096083  IM1       271             0.0000000000
     11487       541  IM1       DC3           -20.0481476645        3.3841995900       18.5131829041  IM1       271             0.0000000000
     11488       541  IM1       H5            -19.2989872137        4.1801769555       18.3351707369  IM1       271             0.0000000000
     11489       541  IM1       C4            -20.7621689840        1.4846218311       19.2147359616  IM1       271             0.0000000000
     11490       541  IM1       DC4           -20.7742976393        1.4826983242       19.2169476848  IM1       271             0.0000000000
     11491       541  IM1       H6            -20.8271564161        0.4820419620       19.6374773007  IM1       271             0.0000000000
     11492       541  IM1       N2            -19.6633443523        2.2272605233       19.1622385379  IM1       271             0.0000000000
     11493       541  IM1       DN2           -19.6728305147        2.2222694258       19.1661892270  IM1       271             0.0000000000
     11494       541  IM1       H7            -18.7516489972        1.9790584768       19.4896638327  IM1       271             0.0000000000
     11495       541  IM1       LPN21         -19.3951430720        2.1487597820       19.2713518133  IM1       271             0.0000000000
     11496       542  IM1       C1             -6.7126546013       -3.6154750788        2.3700580497  IM1       272             0.0000000000
     11497       542  IM1       DC1            -6.7274671810       -3.6577960732        2.3519368437  IM1       272             0.0000000000
     11498       542  IM1       H1             -6.6434560986       -4.7210170618        2.2845624886  IM1       272             0.0000000000
     11499       542  IM1       H2             -6.0888633567       -3.1414968168        1.5823080314  IM1       272             0.0000000000
     11500       542  IM1       H3             -7.7629788076       -3.2673899408        2.2701741223  IM1       272             0.0000000000
     11501       542  IM1       N1             -6.2203857707       -3.1957722248        3.6424480415  IM1       272             0.0000000000
     11502       542  IM1       DN1            -6.2287995811       -3.2130155939        3.6146772928  IM1       272             0.0000000000
     11503       542  IM1       C2             -5.8065722936       -4.0009037479        4.6836902891  IM1       272             0.0000000000
     11504       542  IM1       DC2            -5.8394277052       -4.0268010745        4.6385272727  IM1       272             0.0000000000
     11505       542  IM1       H4             -5.8135101536       -5.0838815241        4.6837373002  IM1       272             0.0000000000
     11506       542  IM1       C3             -5.3586187252       -3.1519608041        5.6511391116  IM1       272             0.0000000000
     11507       542  IM1       DC3            -5.3761952022       -3.1928950425        5.6179474612  IM1       272             0.0000000000
     11508       542  IM1       H5             -4.9532403534       -3.3535487597        6.6349681983  IM1       272             0.0000000000
     11509       542  IM1       C4             -5.9981185669       -1.9092874440        3.9968580387  IM1       272             0.0000000000
     11510       542  IM1       DC4            -5.9896165062       -1.9501500874        3.9780182440  IM1       272             0.0000000000
     11511       542  IM1       H6             -6.2785595556       -1.0526457513        3.3839813282  IM1       272             0.0000000000
     11512       542  IM1       N2             -5.4578971870       -1.8491303925        5.2067570509  IM1       272             0.0000000000
     11513       542  IM1       DN2            -5.4557696834       -1.8722151706        5.1949961534  IM1       272             0.0000000000
     11514       542  IM1       H7             -5.2328148160       -1.0195946561        5.7178425509  IM1       272             0.0000000000
     11515       542  IM1       LPN21          -5.3764707093       -1.5973571947        5.3481076278  IM1       272             0.0000000000
     11516       543  IM1       C1             -0.0237613244       -6.7940641212      -29.2403919315  IM1       273             0.0000000000
     11517       543  IM1       DC1            -0.0180143001       -6.7802341304      -29.2144142245  IM1       273             0.0000000000
     11518       543  IM1       H1              0.3894714222       -7.7543922083      -29.6163303080  IM1       273             0.0000000000
     11519       543  IM1       H2              0.2703896157       -5.9794123253      -29.9361926763  IM1       273             0.0000000000
     11520       543  IM1       H3             -1.1304818415       -6.8739440849      -29.1846255591  IM1       273             0.0000000000
     11521       543  IM1       N1              0.4945161696       -6.5090884832      -27.9322699967  IM1       273             0.0000000000
     11522       543  IM1       DN1             0.4919763944       -6.4792529057      -27.9096310730  IM1       273             0.0000000000
     11523       543  IM1       C2              1.3878706668       -7.2817437070      -27.2237646592  IM1       273             0.0000000000
     11524       543  IM1       DC2             1.3740551814       -7.2512332937      -27.2223787801  IM1       273             0.0000000000
     11525       543  IM1       H4              1.7661962079       -8.2329256525      -27.5773345837  IM1       273             0.0000000000
     11526       543  IM1       C3              1.6281328026       -6.6104346066      -26.0634378817  IM1       273             0.0000000000
     11527       543  IM1       DC3             1.6324253808       -6.5883553780      -26.0468845320  IM1       273             0.0000000000
     11528       543  IM1       H5              2.2563269974       -6.8859331602      -25.2253677163  IM1       273             0.0000000000
     11529       543  IM1       C4              0.2275463621       -5.4043582232      -27.1920947884  IM1       273             0.0000000000
     11530       543  IM1       DC4             0.2246669715       -5.3765196928      -27.1954984875  IM1       273             0.0000000000
     11531       543  IM1       H6             -0.4782799801       -4.6339291029      -27.5024947649  IM1       273             0.0000000000
     11532       543  IM1       N2              0.9137300402       -5.4188943144      -26.0505786361  IM1       273             0.0000000000
     11533       543  IM1       DN2             0.9145062954       -5.3990851982      -26.0500930557  IM1       273             0.0000000000
     11534       543  IM1       H7              0.8812293421       -4.7403926357      -25.3166990979  IM1       273             0.0000000000
     11535       543  IM1       LPN21           0.9085618815       -5.2047171931      -25.8405751818  IM1       273             0.0000000000
     11536       544  IM1       C1            -22.1222433950       29.2896588897       -0.1299978944  IM1       274             0.0000000000
     11537       544  IM1       DC1           -22.1071475947       29.2961581458       -0.1348099262  IM1       274             0.0000000000
     11538       544  IM1       H1            -21.0323908740       29.0742143742       -0.1187666627  IM1       274             0.0000000000
     11539       544  IM1       H2            -22.3959697484       29.8704594152        0.7766804571  IM1       274             0.0000000000
     11540       544  IM1       H3            -22.3836149347       29.8583832791       -1.0479077404  IM1       274             0.0000000000
     11541       544  IM1       N1            -22.8622902491       28.0652425667       -0.1263752485  IM1       274             0.0000000000
     11542       544  IM1       DN1           -22.8696222255       28.0822670384       -0.1287066223  IM1       274             0.0000000000
     11543       544  IM1       C2            -22.3403784571       26.7902889938       -0.1165238452  IM1       274             0.0000000000
     11544       544  IM1       DC2           -22.3325970420       26.8296153445       -0.1187887801  IM1       274             0.0000000000
     11545       544  IM1       H4            -21.2831242135       26.5556047217       -0.1114486316  IM1       274             0.0000000000
     11546       544  IM1       C3            -23.4131174704       25.9477556770       -0.1127870309  IM1       274             0.0000000000
     11547       544  IM1       DC3           -23.4073351761       25.9683071225       -0.1179311705  IM1       274             0.0000000000
     11548       544  IM1       H5            -23.4465177626       24.8653640392       -0.0985826252  IM1       274             0.0000000000
     11549       544  IM1       C4            -24.2140049871       27.9619807497       -0.1331523257  IM1       274             0.0000000000
     11550       544  IM1       DC4           -24.2044948338       27.9707137965       -0.1353855541  IM1       274             0.0000000000
     11551       544  IM1       H6            -24.8842755616       28.8215183669       -0.1388481391  IM1       274             0.0000000000
     11552       544  IM1       N2            -24.5879491925       26.6864000064       -0.1296171370  IM1       274             0.0000000000
     11553       544  IM1       DN2           -24.5878726487       26.6912495566       -0.1314124793  IM1       274             0.0000000000
     11554       544  IM1       H7            -25.5247255024       26.3364713308       -0.1293541866  IM1       274             0.0000000000
     11555       544  IM1       LPN21         -24.8714063186       26.5881852648       -0.1320506911  IM1       274             0.0000000000
     11556       545  IM1       C1            -20.3423674694       24.9963341388        7.9211721627  IM1       275             0.0000000000
     11557       545  IM1       DC1           -20.3460654673       25.0116887532        7.9021869243  IM1       275             0.0000000000
     11558       545  IM1       H1            -19.4163703566       24.3857173304        7.8579466861  IM1       275             0.0000000000
     11559       545  IM1       H2            -21.1885428699       24.3369706509        8.2102188450  IM1       275             0.0000000000
     11560       545  IM1       H3            -20.2042631004       25.7979981373        8.6778643178  IM1       275             0.0000000000
     11561       545  IM1       N1            -20.6272153145       25.5993956093        6.6508256898  IM1       275             0.0000000000
     11562       545  IM1       DN1           -20.6407376623       25.6128403958        6.6336687882  IM1       275             0.0000000000
     11563       545  IM1       C2            -19.8695153533       25.4799566218        5.5047303356  IM1       275             0.0000000000
     11564       545  IM1       DC2           -19.8868416121       25.4900459729        5.5063317553  IM1       275             0.0000000000
     11565       545  IM1       H4            -18.9715291440       24.8772698686        5.4474726222  IM1       275             0.0000000000
     11566       545  IM1       C3            -20.5054730304       26.2194013790        4.5544330045  IM1       275             0.0000000000
     11567       545  IM1       DC3           -20.5150464001       26.2282666546        4.5371836900  IM1       275             0.0000000000
     11568       545  IM1       H5            -20.2608511689       26.3667259178        3.5097585934  IM1       275             0.0000000000
     11569       545  IM1       C4            -21.6868516059       26.3976130572        6.3646345596  IM1       275             0.0000000000
     11570       545  IM1       DC4           -21.6902247899       26.3962973691        6.3645729804  IM1       275             0.0000000000
     11571       545  IM1       H6            -22.4611783428       26.6492194521        7.0893499019  IM1       275             0.0000000000
     11572       545  IM1       N2            -21.6472617754       26.7953243779        5.0917878570  IM1       275             0.0000000000
     11573       545  IM1       DN2           -21.6519079026       26.7969971700        5.0880755149  IM1       275             0.0000000000
     11574       545  IM1       H7            -22.3207916234       27.3649946314        4.6207959821  IM1       275             0.0000000000
     11575       545  IM1       LPN21         -21.8483822019       26.9729644478        4.9576439804  IM1       275             0.0000000000
     11576       546  IM1       C1            -22.4025712414       -2.0054061022        0.8520845975  IM1       276             0.0000000000
     11577       546  IM1       DC1           -22.3997677489       -2.0534216246        0.8473933541  IM1       276             0.0000000000
     11578       546  IM1       H1            -23.3323974832       -1.7642311456        0.2938921561  IM1       276             0.0000000000
     11579       546  IM1       H2            -21.5660054736       -1.4067129950        0.4325070981  IM1       276             0.0000000000
     11580       546  IM1       H3            -22.5479798892       -1.7597734673        1.9257893689  IM1       276             0.0000000000
     11581       546  IM1       N1            -22.1293030344       -3.3998577196        0.7043719696  IM1       276             0.0000000000
     11582       546  IM1       DN1           -22.1163165970       -3.4435621043        0.7036311209  IM1       276             0.0000000000
     11583       546  IM1       C2            -22.9274974105       -4.2983384269        0.0377866089  IM1       276             0.0000000000
     11584       546  IM1       DC2           -22.9142533213       -4.3184519067        0.0461066282  IM1       276             0.0000000000
     11585       546  IM1       H4            -23.8468491998       -4.0046422527       -0.4535623962  IM1       276             0.0000000000
     11586       546  IM1       C3            -22.3361165318       -5.5129199160        0.1760648485  IM1       276             0.0000000000
     11587       546  IM1       DC3           -22.3048641720       -5.5401652811        0.1864496179  IM1       276             0.0000000000
     11588       546  IM1       H5            -22.6682084548       -6.4779815312       -0.1862334174  IM1       276             0.0000000000
     11589       546  IM1       C4            -21.0820968481       -4.0878116143        1.2205589208  IM1       276             0.0000000000
     11590       546  IM1       DC4           -21.0643659595       -4.1097836557        1.2142340105  IM1       276             0.0000000000
     11591       546  IM1       H6            -20.3157118181       -3.6099886238        1.8308368702  IM1       276             0.0000000000
     11592       546  IM1       N2            -21.1631667401       -5.3862594088        0.9092516612  IM1       276             0.0000000000
     11593       546  IM1       DN2           -21.1252143944       -5.4136823090        0.9128818181  IM1       276             0.0000000000
     11594       546  IM1       H7            -20.5394574651       -6.1158530763        1.1897508958  IM1       276             0.0000000000
     11595       546  IM1       LPN21         -20.9653670870       -5.5984676764        0.9856908426  IM1       276             0.0000000000
     11596       547  IM1       C1              6.0233198638       24.3696658580       19.4061665811  IM1       277             0.0000000000
     11597       547  IM1       DC1             6.0568120764       24.3911848088       19.4323343957  IM1       277             0.0000000000
     11598       547  IM1       H1              5.8033398318       25.3923617641       19.7803628816  IM1       277             0.0000000000
     11599       547  IM1       H2              5.2356087016       23.6659010089       19.7504733669  IM1       277             0.0000000000
     11600       547  IM1       H3              6.0376748630       24.3841253529       18.2953534299  IM1       277             0.0000000000
     11601       547  IM1       N1              7.2943382637       23.9127350539       19.8931163525  IM1       277             0.0000000000
     11602       547  IM1       DN1             7.3267230122       23.9172933705       19.9163948676  IM1       277             0.0000000000
     11603       547  IM1       C2              8.0419215949       24.5290287237       20.8730471064  IM1       277             0.0000000000
     11604       547  IM1       DC2             8.0592728409       24.5262531601       20.8932883410  IM1       277             0.0000000000
     11605       547  IM1       H4              7.7667672760       25.4845590683       21.3021634791  IM1       277             0.0000000000
     11606       547  IM1       C3              9.1801036453       23.7979293183       20.9993677972  IM1       277             0.0000000000
     11607       547  IM1       DC3             9.2187568604       23.7792932251       21.0267062596  IM1       277             0.0000000000
     11608       547  IM1       H5             10.0643121241       23.9876800798       21.5952360834  IM1       277             0.0000000000
     11609       547  IM1       C4              7.9871252979       22.8221659722       19.4734494928  IM1       277             0.0000000000
     11610       547  IM1       DC4             8.0052725358       22.8404979266       19.4970442839  IM1       277             0.0000000000
     11611       547  IM1       H6              7.6387898503       22.1628029063       18.6784634784  IM1       277             0.0000000000
     11612       547  IM1       N2              9.1540350583       22.7275827449       20.1251571425  IM1       277             0.0000000000
     11613       547  IM1       DN2             9.1783174114       22.7242692296       20.1344077141  IM1       277             0.0000000000
     11614       547  IM1       H7              9.8644434779       22.0389140654       19.9800526033  IM1       277             0.0000000000
     11615       547  IM1       LPN21           9.3619819556       22.5151920882       20.0845579204  IM1       277             0.0000000000
     11616       548  IM1       C1             16.2503769534      -26.3173257391       -7.1168243831  IM1       278             0.0000000000
     11617       548  IM1       DC1            16.2577549328      -26.3182134902       -7.1058954941  IM1       278             0.0000000000
     11618       548  IM1       H1             16.7521316282      -26.9717782110       -6.3723412026  IM1       278             0.0000000000
     11619       548  IM1       H2             16.2604563054      -26.8093580835       -8.1128783863  IM1       278             0.0000000000
     11620       548  IM1       H3             15.2040816028      -26.1230685271       -6.7976830743  IM1       278             0.0000000000
     11621       548  IM1       N1             16.9398249410      -25.0672902852       -7.2169879929  IM1       278             0.0000000000
     11622       548  IM1       DN1            16.9358139766      -25.0623982440       -7.2171345126  IM1       278             0.0000000000
     11623       548  IM1       C2             18.0499413746      -24.6836069855       -6.4936884409  IM1       278             0.0000000000
     11624       548  IM1       DC2            18.0330583666      -24.7003182400       -6.4932038622  IM1       278             0.0000000000
     11625       548  IM1       H4             18.5531401383      -25.3163792666       -5.7730781122  IM1       278             0.0000000000
     11626       548  IM1       C3             18.3369751854      -23.4137720728       -6.8967390228  IM1       278             0.0000000000
     11627       548  IM1       DC3            18.3331707769      -23.4217790509       -6.8826126043  IM1       278             0.0000000000
     11628       548  IM1       H5             19.1306453035      -22.7440477195       -6.5894182876  IM1       278             0.0000000000
     11629       548  IM1       C4             16.5877935283      -24.0329873387       -8.0188327134  IM1       278             0.0000000000
     11630       548  IM1       DC4            16.5843533654      -24.0436926825       -8.0047897161  IM1       278             0.0000000000
     11631       548  IM1       H6             15.7435381923      -24.0605497584       -8.7077254780  IM1       278             0.0000000000
     11632       548  IM1       N2             17.4089043711      -23.0030514425       -7.8378500528  IM1       278             0.0000000000
     11633       548  IM1       DN2            17.4056090128      -23.0125337688       -7.8221061263  IM1       278             0.0000000000
     11634       548  IM1       H7             17.3758224385      -22.1222561765       -8.3101902750  IM1       278             0.0000000000
     11635       548  IM1       LPN21          17.3892052946      -22.7383065257       -7.9775714737  IM1       278             0.0000000000
     11636       549  IM1       C1            -17.7598726198       -8.9631767701       20.4222917243  IM1       279             0.0000000000
     11637       549  IM1       DC1           -17.7813369278       -8.9479811682       20.4205471557  IM1       279             0.0000000000
     11638       549  IM1       H1            -17.1463283772       -8.2087392936       20.9596077917  IM1       279             0.0000000000
     11639       549  IM1       H2            -17.1281311751       -9.4727164929       19.6636132551  IM1       279             0.0000000000
     11640       549  IM1       H3            -18.1496345180       -9.7061446264       21.1505811088  IM1       279             0.0000000000
     11641       549  IM1       N1            -18.8699370789       -8.3328531284       19.7663803163  IM1       279             0.0000000000
     11642       549  IM1       DN1           -18.8862853624       -8.3248366559       19.7616727578  IM1       279             0.0000000000
     11643       549  IM1       C2            -19.1801807408       -6.9925356594       19.8205503648  IM1       279             0.0000000000
     11644       549  IM1       DC2           -19.2009806954       -7.0056173252       19.8284597988  IM1       279             0.0000000000
     11645       549  IM1       H4            -18.5431115850       -6.2455893108       20.2778282269  IM1       279             0.0000000000
     11646       549  IM1       C3            -20.3316223955       -6.8464498970       19.1158362430  IM1       279             0.0000000000
     11647       549  IM1       DC3           -20.3698195525       -6.8325402602       19.1175309050  IM1       279             0.0000000000
     11648       549  IM1       H5            -20.8696491500       -5.9442907944       18.8521599924  IM1       279             0.0000000000
     11649       549  IM1       C4            -19.8416146045       -8.9513196799       19.0469489937  IM1       279             0.0000000000
     11650       549  IM1       DC4           -19.8381859206       -8.9440098696       19.0543526756  IM1       279             0.0000000000
     11651       549  IM1       H6            -19.8462671997      -10.0210741640       18.8378947011  IM1       279             0.0000000000
     11652       549  IM1       N2            -20.7577050330       -8.0692716967       18.6412707269  IM1       279             0.0000000000
     11653       549  IM1       DN2           -20.7646842947       -8.0601137738       18.6469409786  IM1       279             0.0000000000
     11654       549  IM1       H7            -21.5558171880       -8.2568880660       18.0687175976  IM1       279             0.0000000000
     11655       549  IM1       LPN21         -21.0030841725       -8.1316267566       18.4803330856  IM1       279             0.0000000000
     11656       550  IM1       C1             17.5299892181       17.2172827069      -24.5328170385  IM1       280             0.0000000000
     11657       550  IM1       DC1            17.4800628358       17.2111334510      -24.5656174075  IM1       280             0.0000000000
     11658       550  IM1       H1             17.4113166823       17.1965902236      -25.6372669706  IM1       280             0.0000000000
     11659       550  IM1       H2             18.0139837009       18.1735822796      -24.2403081172  IM1       280             0.0000000000
     11660       550  IM1       H3             16.5504595393       17.1006458932      -24.0217021178  IM1       280             0.0000000000
     11661       550  IM1       N1             18.3948769114       16.1612600092      -24.1214650656  IM1       280             0.0000000000
     11662       550  IM1       DN1            18.3562822900       16.1520938279      -24.1181957164  IM1       280             0.0000000000
     11663       550  IM1       C2             19.0703477234       15.3001988683      -24.9556390766  IM1       280             0.0000000000
     11664       550  IM1       DC2            19.0212533179       15.2946508317      -24.9564527252  IM1       280             0.0000000000
     11665       550  IM1       H4             19.0667692908       15.3587906655      -26.0370470459  IM1       280             0.0000000000
     11666       550  IM1       C3             19.8143895337       14.5056056268      -24.1356039275  IM1       280             0.0000000000
     11667       550  IM1       DC3            19.7858395850       14.4823686864      -24.1318944728  IM1       280             0.0000000000
     11668       550  IM1       H5             20.5239777912       13.7277416800      -24.3891807108  IM1       280             0.0000000000
     11669       550  IM1       C4             18.7194923102       15.8471937257      -22.8405130241  IM1       280             0.0000000000
     11670       550  IM1       DC4            18.6953172280       15.8326190487      -22.8422158741  IM1       280             0.0000000000
     11671       550  IM1       H6             18.4143524028       16.4525277896      -21.9869555814  IM1       280             0.0000000000
     11672       550  IM1       N2             19.5526077718       14.8105217335      -22.8059833255  IM1       280             0.0000000000
     11673       550  IM1       DN2            19.5419480876       14.7897290187      -22.7938987853  IM1       280             0.0000000000
     11674       550  IM1       H7             20.0054523063       14.4342823026      -21.9976667302  IM1       280             0.0000000000
     11675       550  IM1       LPN21          19.6564536568       14.6775159783      -22.5579399800  IM1       280             0.0000000000
     11676       551  IM1       C1              5.5037922254       -9.0705476581        1.3777784145  IM1       281             0.0000000000
     11677       551  IM1       DC1             5.5330624154       -9.0872860442        1.3755473024  IM1       281             0.0000000000
     11678       551  IM1       H1              6.6142415779       -9.0376695472        1.3897059820  IM1       281             0.0000000000
     11679       551  IM1       H2              5.1491970897       -9.5613120796        0.4462562337  IM1       281             0.0000000000
     11680       551  IM1       H3              5.1259036502       -9.6228878986        2.2645937749  IM1       281             0.0000000000
     11681       551  IM1       N1              4.9764634009       -7.7424830425        1.4226808198  IM1       281             0.0000000000
     11682       551  IM1       DN1             4.9891552510       -7.7636478000        1.4178115990  IM1       281             0.0000000000
     11683       551  IM1       C2              5.6809031111       -6.6057081583        1.7529199242  IM1       281             0.0000000000
     11684       551  IM1       DC2             5.6951849600       -6.6433707199        1.7440476402  IM1       281             0.0000000000
     11685       551  IM1       H4              6.7470857662       -6.5778662127        1.9409847325  IM1       281             0.0000000000
     11686       551  IM1       C3              4.7651129054       -5.5963017120        1.7947975403  IM1       281             0.0000000000
     11687       551  IM1       DC3             4.7943708884       -5.6114221497        1.7861647400  IM1       281             0.0000000000
     11688       551  IM1       H5              4.8868171702       -4.5474499395        2.0356025103  IM1       281             0.0000000000
     11689       551  IM1       C4              3.6740061979       -7.3960794951        1.2805608487  IM1       281             0.0000000000
     11690       551  IM1       DC4             3.7125081073       -7.4017129259        1.2738435333  IM1       281             0.0000000000
     11691       551  IM1       H6              2.8700192409       -8.1131938849        1.1148746245  IM1       281             0.0000000000
     11692       551  IM1       N2              3.5144666732       -6.0897468260        1.4787367046  IM1       281             0.0000000000
     11693       551  IM1       DN2             3.5369480343       -6.0913319557        1.4742329506  IM1       281             0.0000000000
     11694       551  IM1       H7              2.6469822350       -5.5926009435        1.4965333586  IM1       281             0.0000000000
     11695       551  IM1       LPN21           3.2552110146       -5.9403602159        1.4570538958  IM1       281             0.0000000000
     11696       552  IM1       C1            -12.4060464003      -14.1455890281       -8.1856862763  IM1       282             0.0000000000
     11697       552  IM1       DC1           -12.4059788104      -14.1380556054       -8.1906218795  IM1       282             0.0000000000
     11698       552  IM1       H1            -12.6616311124      -13.1875637297       -8.6868698601  IM1       282             0.0000000000
     11699       552  IM1       H2            -13.2771188462      -14.8336468695       -8.2318403747  IM1       282             0.0000000000
     11700       552  IM1       H3            -11.5279942102      -14.5999402439       -8.6925494966  IM1       282             0.0000000000
     11701       552  IM1       N1            -12.0749150360      -13.9107591423       -6.8121097039  IM1       282             0.0000000000
     11702       552  IM1       DN1           -12.0769608199      -13.9268602171       -6.8149924896  IM1       282             0.0000000000
     11703       552  IM1       C2            -11.9290701480      -12.6846421930       -6.2054893732  IM1       282             0.0000000000
     11704       552  IM1       DC2           -11.9283107919      -12.7271823828       -6.2127635094  IM1       282             0.0000000000
     11705       552  IM1       H4            -12.1562095910      -11.7311918734       -6.6661727369  IM1       282             0.0000000000
     11706       552  IM1       C3            -11.4824170375      -12.9403987725       -4.9466522632  IM1       282             0.0000000000
     11707       552  IM1       DC3           -11.4760878212      -12.9534036199       -4.9325107719  IM1       282             0.0000000000
     11708       552  IM1       H5            -11.2350319513      -12.2469766752       -4.1523881925  IM1       282             0.0000000000
     11709       552  IM1       C4            -11.7246978073      -14.8615059021       -5.9099986950  IM1       282             0.0000000000
     11710       552  IM1       DC4           -11.7268029611      -14.8576343088       -5.9144581158  IM1       282             0.0000000000
     11711       552  IM1       H6            -11.6996194480      -15.9259338254       -6.1433745121  IM1       282             0.0000000000
     11712       552  IM1       N2            -11.3595671652      -14.3061594180       -4.7546793536  IM1       282             0.0000000000
     11713       552  IM1       DN2           -11.3569987220      -14.3119973551       -4.7449072658  IM1       282             0.0000000000
     11714       552  IM1       H7            -11.0277474492      -14.7807379055       -3.9394058196  IM1       282             0.0000000000
     11715       552  IM1       LPN21         -11.2706470616      -14.4538898855       -4.5091820539  IM1       282             0.0000000000
     11716       553  IM1       C1            -22.6544612949       23.3385283108        4.6441625547  IM1       283             0.0000000000
     11717       553  IM1       DC1           -22.6744836879       23.3464953792        4.6371818414  IM1       283             0.0000000000
     11718       553  IM1       H1            -23.7421314267       23.1142018929        4.6753449749  IM1       283             0.0000000000
     11719       553  IM1       H2            -22.5178352334       24.4409342156        4.6253067752  IM1       283             0.0000000000
     11720       553  IM1       H3            -22.1497872013       22.9088611275        5.5357965453  IM1       283             0.0000000000
     11721       553  IM1       N1            -22.0718072698       22.7895771492        3.4630562520  IM1       283             0.0000000000
     11722       553  IM1       DN1           -22.0771420817       22.7953284022        3.4529683523  IM1       283             0.0000000000
     11723       553  IM1       C2            -22.7604969452       22.4716936618        2.3112301094  IM1       283             0.0000000000
     11724       553  IM1       DC2           -22.7709975407       22.4834055512        2.3212704060  IM1       283             0.0000000000
     11725       553  IM1       H4            -23.8409650853       22.4843788829        2.2383145178  IM1       283             0.0000000000
     11726       553  IM1       C3            -21.8195733992       22.0659013595        1.4170740766  IM1       283             0.0000000000
     11727       553  IM1       DC3           -21.8314207958       22.0788262924        1.4137127382  IM1       283             0.0000000000
     11728       553  IM1       H5            -21.9354554436       21.6661501267        0.4172444393  IM1       283             0.0000000000
     11729       553  IM1       C4            -20.7499665635       22.6071328250        3.2250081456  IM1       283             0.0000000000
     11730       553  IM1       DC4           -20.7687114773       22.6346070764        3.2056935171  IM1       283             0.0000000000
     11731       553  IM1       H6            -19.9728809103       22.7531498400        3.9752860401  IM1       283             0.0000000000
     11732       553  IM1       N2            -20.5594378638       22.1908578250        1.9765383960  IM1       283             0.0000000000
     11733       553  IM1       DN2           -20.5631795663       22.2087458025        1.9636498426  IM1       283             0.0000000000
     11734       553  IM1       H7            -19.6881749502       21.9394802066        1.5549814860  IM1       283             0.0000000000
     11735       553  IM1       LPN21         -20.2927776745       22.1373261081        1.8499417976  IM1       283             0.0000000000
     11736       554  IM1       C1            -24.9955518995      -15.5534386692       28.2418841756  IM1       284             0.0000000000
     11737       554  IM1       DC1           -25.0139486165      -15.5542458549       28.2304194106  IM1       284             0.0000000000
     11738       554  IM1       H1            -26.0268519765      -15.7451567897       27.8758441320  IM1       284             0.0000000000
     11739       554  IM1       H2            -24.7877051288      -16.1935914636       29.1258101446  IM1       284             0.0000000000
     11740       554  IM1       H3            -24.2608080051      -15.7695207727       27.4370357846  IM1       284             0.0000000000
     11741       554  IM1       N1            -24.8579895557      -14.1824227542       28.6289814021  IM1       284             0.0000000000
     11742       554  IM1       DN1           -24.8622370591      -14.1850063992       28.6264056985  IM1       284             0.0000000000
     11743       554  IM1       C2            -25.8347183233      -13.2104553947       28.5553228748  IM1       284             0.0000000000
     11744       554  IM1       DC2           -25.8396717324      -13.2324662547       28.5463994887  IM1       284             0.0000000000
     11745       554  IM1       H4            -26.8408850377      -13.3864970751       28.1954244589  IM1       284             0.0000000000
     11746       554  IM1       C3            -25.2573497356      -12.0682539901       29.0232131416  IM1       284             0.0000000000
     11747       554  IM1       DC3           -25.2758248259      -12.0767072521       29.0215148133  IM1       284             0.0000000000
     11748       554  IM1       H5            -25.6670970657      -11.0725017379       29.1392888882  IM1       284             0.0000000000
     11749       554  IM1       C4            -23.7372262002      -13.6100669308       29.1334027343  IM1       284             0.0000000000
     11750       554  IM1       DC4           -23.7599761617      -13.6191751411       29.1253392090  IM1       284             0.0000000000
     11751       554  IM1       H6            -22.8018659483      -14.1468592347       29.2916911473  IM1       284             0.0000000000
     11752       554  IM1       N2            -23.9488802040      -12.3220674496       29.3918124048  IM1       284             0.0000000000
     11753       554  IM1       DN2           -23.9656176761      -12.3270995526       29.3888299256  IM1       284             0.0000000000
     11754       554  IM1       H7            -23.2867166488      -11.6716765354       29.7640100486  IM1       284             0.0000000000
     11755       554  IM1       LPN21         -23.7473099093      -12.1320789763       29.5070243674  IM1       284             0.0000000000
     11756       555  IM1       C1            -23.3149174434      -28.5653064155       27.5121323859  IM1       285             0.0000000000
     11757       555  IM1       DC1           -23.3120222220      -28.5872607909       27.5239047145  IM1       285             0.0000000000
     11758       555  IM1       H1            -22.2207135221      -28.4622201551       27.6746500878  IM1       285             0.0000000000
     11759       555  IM1       H2            -23.6462545924      -29.5890822650       27.7885735262  IM1       285             0.0000000000
     11760       555  IM1       H3            -23.8457736696      -27.8037192040       28.1224581895  IM1       285             0.0000000000
     11761       555  IM1       N1            -23.6236799340      -28.3396696428       26.1325367808  IM1       285             0.0000000000
     11762       555  IM1       DN1           -23.6418815513      -28.3539386984       26.1481568070  IM1       285             0.0000000000
     11763       555  IM1       C2            -22.7231788018      -28.0618130215       25.1301426400  IM1       285             0.0000000000
     11764       555  IM1       DC2           -22.7542735733      -28.0791326980       25.1589934964  IM1       285             0.0000000000
     11765       555  IM1       H4            -21.6580380900      -27.9328303739       25.2775459682  IM1       285             0.0000000000
     11766       555  IM1       C3            -23.4593727257      -27.9268684900       23.9915259494  IM1       285             0.0000000000
     11767       555  IM1       DC3           -23.4689674266      -27.9306473432       23.9955599982  IM1       285             0.0000000000
     11768       555  IM1       H5            -23.1387194511      -27.6711982365       22.9891771084  IM1       285             0.0000000000
     11769       555  IM1       C4            -24.8612782311      -28.3755143195       25.5793041163  IM1       285             0.0000000000
     11770       555  IM1       DC4           -24.8590705207      -28.3829274767       25.5872042363  IM1       285             0.0000000000
     11771       555  IM1       H6            -25.7717321170      -28.5626894387       26.1486363544  IM1       285             0.0000000000
     11772       555  IM1       N2            -24.8020100016      -28.1306823251       24.2728521601  IM1       285             0.0000000000
     11773       555  IM1       DN2           -24.8098265086      -28.1350521238       24.2729523140  IM1       285             0.0000000000
     11774       555  IM1       H7            -25.5707688483      -28.0751782835       23.6357264763  IM1       285             0.0000000000
     11775       555  IM1       LPN21         -25.0363695265      -28.1232038404       24.0857166868  IM1       285             0.0000000000
     11776       556  IM1       C1             -5.0902300280       11.8397500814      -19.9799055156  IM1       286             0.0000000000
     11777       556  IM1       DC1            -5.0864269612       11.8383828788      -19.9843734730  IM1       286             0.0000000000
     11778       556  IM1       H1             -4.9334836253       12.8075786549      -20.5024563912  IM1       286             0.0000000000
     11779       556  IM1       H2             -5.8990049810       11.9517467260      -19.2264728215  IM1       286             0.0000000000
     11780       556  IM1       H3             -5.3573309609       11.0562476201      -20.7209196769  IM1       286             0.0000000000
     11781       556  IM1       N1             -3.8907171731       11.4491543506      -19.3040362830  IM1       286             0.0000000000
     11782       556  IM1       DN1            -3.8947557399       11.4301983050      -19.2926893928  IM1       286             0.0000000000
     11783       556  IM1       C2             -2.6809806998       12.1068807951      -19.3316762180  IM1       286             0.0000000000
     11784       556  IM1       DC2            -2.6973108837       12.0873457370      -19.3331506108  IM1       286             0.0000000000
     11785       556  IM1       H4             -2.5216303616       13.0503454996      -19.8389934982  IM1       286             0.0000000000
     11786       556  IM1       C3             -1.8422702514       11.3774717304      -18.5453273216  IM1       286             0.0000000000
     11787       556  IM1       DC3            -1.8295869566       11.3515458829      -18.5588229979  IM1       286             0.0000000000
     11788       556  IM1       H5             -0.8121995831       11.5703118477      -18.2720946216  IM1       286             0.0000000000
     11789       556  IM1       C4             -3.7434293410       10.3436640034      -18.5345667144  IM1       286             0.0000000000
     11790       556  IM1       DC4            -3.7481525375       10.3301794867      -18.5375567168  IM1       286             0.0000000000
     11791       556  IM1       H6             -4.5540977386        9.6432144094      -18.3338502041  IM1       286             0.0000000000
     11792       556  IM1       N2             -2.4985516266       10.2504336223      -18.0735900238  IM1       286             0.0000000000
     11793       556  IM1       DN2            -2.4979300951       10.2343110322      -18.0776538336  IM1       286             0.0000000000
     11794       556  IM1       H7             -2.1300969441        9.5433482445      -17.4700410072  IM1       286             0.0000000000
     11795       556  IM1       LPN21          -2.3912443945       10.0278455032      -17.9034733368  IM1       286             0.0000000000
     11796       557  IM1       C1             -5.0694340030        9.2870695195      -25.7989707790  IM1       287             0.0000000000
     11797       557  IM1       DC1            -5.0429069196        9.2680185027      -25.7851959292  IM1       287             0.0000000000
     11798       557  IM1       H1             -4.5987436634        9.1647737113      -24.8000637061  IM1       287             0.0000000000
     11799       557  IM1       H2             -4.7629036671       10.2625657694      -26.2334442760  IM1       287             0.0000000000
     11800       557  IM1       H3             -4.7853606758        8.4541002674      -26.4770456807  IM1       287             0.0000000000
     11801       557  IM1       N1             -6.4814717910        9.3245978664      -25.6814686623  IM1       287             0.0000000000
     11802       557  IM1       DN1            -6.4529092418        9.3180277337      -25.6735710726  IM1       287             0.0000000000
     11803       557  IM1       C2             -7.1805943443        9.4275784556      -24.4978066640  IM1       287             0.0000000000
     11804       557  IM1       DC2            -7.1391662570        9.4179106203      -24.4969239600  IM1       287             0.0000000000
     11805       557  IM1       H4             -6.7272239427        9.4081656848      -23.5144616459  IM1       287             0.0000000000
     11806       557  IM1       C3             -8.4810042519        9.6124966676      -24.8539170165  IM1       287             0.0000000000
     11807       557  IM1       DC3            -8.4543547719        9.6018848704      -24.8264145041  IM1       287             0.0000000000
     11808       557  IM1       H5             -9.3626148851        9.7721453068      -24.2455059685  IM1       287             0.0000000000
     11809       557  IM1       C4             -7.3591059275        9.4631772239      -26.7050887157  IM1       287             0.0000000000
     11810       557  IM1       DC4            -7.3240725037        9.4625428202      -26.6658580013  IM1       287             0.0000000000
     11811       557  IM1       H6             -7.0807176652        9.4705481864      -27.7589130105  IM1       287             0.0000000000
     11812       557  IM1       N2             -8.5884128360        9.6300623262      -26.2287737052  IM1       287             0.0000000000
     11813       557  IM1       DN2            -8.5655385851        9.6263582809      -26.1944912053  IM1       287             0.0000000000
     11814       557  IM1       H7             -9.4137439930        9.7840359558      -26.7720237420  IM1       287             0.0000000000
     11815       557  IM1       LPN21          -8.8357445978        9.6641912949      -26.3950933164  IM1       287             0.0000000000
     11816       558  IM1       C1            -10.9473258285       20.3573108569        5.1057395050  IM1       288             0.0000000000
     11817       558  IM1       DC1           -10.9386507670       20.3794843131        5.1029091522  IM1       288             0.0000000000
     11818       558  IM1       H1            -11.4984768231       20.7972260766        4.2472360510  IM1       288             0.0000000000
     11819       558  IM1       H2            -11.6591028944       19.8031669931        5.7542909587  IM1       288             0.0000000000
     11820       558  IM1       H3            -10.1614245359       19.6640534071        4.7368570479  IM1       288             0.0000000000
     11821       558  IM1       N1            -10.3188034568       21.3844566652        5.8777531645  IM1       288             0.0000000000
     11822       558  IM1       DN1           -10.3080702359       21.4011100049        5.8834658601  IM1       288             0.0000000000
     11823       558  IM1       C2            -10.3739237963       22.7436100487        5.6433237645  IM1       288             0.0000000000
     11824       558  IM1       DC2           -10.3923069355       22.7419486875        5.6381607666  IM1       288             0.0000000000
     11825       558  IM1       H4            -10.8794932701       23.1882551872        4.7950436165  IM1       288             0.0000000000
     11826       558  IM1       C3             -9.6820405170       23.3245045041        6.6632682754  IM1       288             0.0000000000
     11827       558  IM1       DC3            -9.6804853157       23.3283002043        6.6547423536  IM1       288             0.0000000000
     11828       558  IM1       H5             -9.5008217233       24.3707633716        6.8763202196  IM1       288             0.0000000000
     11829       558  IM1       C4             -9.5973780271       21.1855256571        7.0079857142  IM1       288             0.0000000000
     11830       558  IM1       DC4            -9.6032372699       21.1905874085        6.9970413936  IM1       288             0.0000000000
     11831       558  IM1       H6             -9.3930860810       20.1993886321        7.4249971872  IM1       288             0.0000000000
     11832       558  IM1       N2             -9.1864207301       22.3478247588        7.5100718240  IM1       288             0.0000000000
     11833       558  IM1       DN2            -9.1871301411       22.3518990516        7.5019931878  IM1       288             0.0000000000
     11834       558  IM1       H7             -8.6474149537       22.4832856255        8.3414099792  IM1       288             0.0000000000
     11835       558  IM1       LPN21          -9.0201567566       22.3818147719        7.7574601223  IM1       288             0.0000000000
     11836       559  IM1       C1              6.3867012008       23.8344244565      -18.5197691752  IM1       289             0.0000000000
     11837       559  IM1       DC1             6.4151264134       23.8311004567      -18.5188504818  IM1       289             0.0000000000
     11838       559  IM1       H1              7.2661044717       23.1880726971      -18.3119223782  IM1       289             0.0000000000
     11839       559  IM1       H2              6.0008314219       23.6780498209      -19.5498043625  IM1       289             0.0000000000
     11840       559  IM1       H3              5.5734628272       23.5950835737      -17.8016603451  IM1       289             0.0000000000
     11841       559  IM1       N1              6.7836683977       25.1884970486      -18.3881163911  IM1       289             0.0000000000
     11842       559  IM1       DN1             6.7916514613       25.1870637094      -18.3881844316  IM1       289             0.0000000000
     11843       559  IM1       C2              8.0854724824       25.6418935103      -18.3792702922  IM1       289             0.0000000000
     11844       559  IM1       DC2             8.0901430167       25.6061782149      -18.3809052618  IM1       289             0.0000000000
     11845       559  IM1       H4              8.9559298277       24.9982610679      -18.3487696533  IM1       289             0.0000000000
     11846       559  IM1       C3              7.9973576190       26.9989371254      -18.4155226358  IM1       289             0.0000000000
     11847       559  IM1       DC3             8.0086447340       26.9716111416      -18.4247837757  IM1       289             0.0000000000
     11848       559  IM1       H5              8.7637910963       27.7640961129      -18.4148525086  IM1       289             0.0000000000
     11849       559  IM1       C4              5.9639540864       26.2627003128      -18.4519396348  IM1       289             0.0000000000
     11850       559  IM1       DC4             5.9832547281       26.2419189462      -18.4606214530  IM1       289             0.0000000000
     11851       559  IM1       H6              4.8760437681       26.1956814877      -18.4442183993  IM1       289             0.0000000000
     11852       559  IM1       N2              6.6751053992       27.3831691907      -18.4861667559  IM1       289             0.0000000000
     11853       559  IM1       DN2             6.6941176507       27.3671024526      -18.4991750882  IM1       289             0.0000000000
     11854       559  IM1       H7              6.3212628381       28.3180385129      -18.5147113267  IM1       289             0.0000000000
     11855       559  IM1       LPN21           6.5624075646       27.6605235678      -18.5054993081  IM1       289             0.0000000000
     11856       560  IM1       C1            -20.5774093067      -26.2417695049        5.8751889940  IM1       290             0.0000000000
     11857       560  IM1       DC1           -20.5863339817      -26.2466239261        5.8851625234  IM1       290             0.0000000000
     11858       560  IM1       H1            -20.2328702812      -26.3633585733        6.9243934357  IM1       290             0.0000000000
     11859       560  IM1       H2            -20.2475354458      -27.1189467156        5.2784776921  IM1       290             0.0000000000
     11860       560  IM1       H3            -21.6839125152      -26.1459847853        5.8469589181  IM1       290             0.0000000000
     11861       560  IM1       N1            -20.0023662543      -25.0624986527        5.3083501702  IM1       290             0.0000000000
     11862       560  IM1       DN1           -20.0244736171      -25.0785346467        5.2932669578  IM1       290             0.0000000000
     11863       560  IM1       C2            -19.0845107804      -24.2450506109        5.9191778452  IM1       290             0.0000000000
     11864       560  IM1       DC2           -19.1370901548      -24.2655931311        5.8887517086  IM1       290             0.0000000000
     11865       560  IM1       H4            -18.7093173198      -24.3810790036        6.9259624022  IM1       290             0.0000000000
     11866       560  IM1       C3            -18.7062759729      -23.3337703505        4.9812808054  IM1       290             0.0000000000
     11867       560  IM1       DC3           -18.7291711793      -23.3177510470        4.9764580138  IM1       290             0.0000000000
     11868       560  IM1       H5            -17.9918138672      -22.5231820649        5.0546260893  IM1       290             0.0000000000
     11869       560  IM1       C4            -20.1734757073      -24.6162303143        4.0395932466  IM1       290             0.0000000000
     11870       560  IM1       DC4           -20.1790904005      -24.6216618208        4.0427689916  IM1       290             0.0000000000
     11871       560  IM1       H6            -20.8555108344      -25.0767510833        3.3248564366  IM1       290             0.0000000000
     11872       560  IM1       N2            -19.4093623178      -23.5517282807        3.8087911810  IM1       290             0.0000000000
     11873       560  IM1       DN2           -19.4170535494      -23.5495605238        3.8075681016  IM1       290             0.0000000000
     11874       560  IM1       H7            -19.3507818879      -23.0266281839        2.9597692604  IM1       290             0.0000000000
     11875       560  IM1       LPN21         -19.3982344101      -23.3969045042        3.5520699939  IM1       290             0.0000000000
     11876       561  IM1       C1             12.3198524363       26.0162592248      -21.2589388898  IM1       291             0.0000000000
     11877       561  IM1       DC1            12.3178547254       25.9969976998      -21.2441945776  IM1       291             0.0000000000
     11878       561  IM1       H1             12.5557656288       25.0686761207      -20.7290783170  IM1       291             0.0000000000
     11879       561  IM1       H2             13.2429380457       26.4307551178      -21.7176622423  IM1       291             0.0000000000
     11880       561  IM1       H3             11.5670633344       25.8309025570      -22.0547230776  IM1       291             0.0000000000
     11881       561  IM1       N1             11.8037369599       26.9842843123      -20.3358354422  IM1       291             0.0000000000
     11882       561  IM1       DN1            11.8034854643       26.9763053469      -20.3170637537  IM1       291             0.0000000000
     11883       561  IM1       C2             11.6382249875       26.8438536287      -18.9720369144  IM1       291             0.0000000000
     11884       561  IM1       DC2            11.6391135456       26.8224342658      -18.9660220839  IM1       291             0.0000000000
     11885       561  IM1       H4             11.8359926258       25.9248125445      -18.4343191012  IM1       291             0.0000000000
     11886       561  IM1       C3             11.2221321112       28.0605513559      -18.5239477375  IM1       291             0.0000000000
     11887       561  IM1       DC3            11.2228554126       28.0452826827      -18.5026882538  IM1       291             0.0000000000
     11888       561  IM1       H5             10.9555016225       28.3932153060      -17.5283916724  IM1       291             0.0000000000
     11889       561  IM1       C4             11.4754025222       28.2528338528      -20.6613986090  IM1       291             0.0000000000
     11890       561  IM1       DC4            11.4876469231       28.2326863766      -20.6450896272  IM1       291             0.0000000000
     11891       561  IM1       H6             11.4656770128       28.6112230282      -21.6907491877  IM1       291             0.0000000000
     11892       561  IM1       N2             11.1057287785       28.9351238481      -19.5818978231  IM1       291             0.0000000000
     11893       561  IM1       DN2            11.1076147014       28.9211083154      -19.5691301461  IM1       291             0.0000000000
     11894       561  IM1       H7             10.8003954555       29.8870486471      -19.5571846915  IM1       291             0.0000000000
     11895       561  IM1       LPN21          11.0163349584       29.2214688195      -19.5779860124  IM1       291             0.0000000000
     11896       562  IM1       C1             24.9518171105      -28.4809790944        2.4794230820  IM1       292             0.0000000000
     11897       562  IM1       DC1            24.9344030912      -28.4815075136        2.4935795585  IM1       292             0.0000000000
     11898       562  IM1       H1             23.9086851054      -28.1850449787        2.7215379655  IM1       292             0.0000000000
     11899       562  IM1       H2             25.2783690397      -29.3082788707        3.1452007607  IM1       292             0.0000000000
     11900       562  IM1       H3             25.0149436888      -28.7985903489        1.4166629361  IM1       292             0.0000000000
     11901       562  IM1       N1             25.8305703865      -27.3715860438        2.6652628750  IM1       292             0.0000000000
     11902       562  IM1       DN1            25.8228263363      -27.3768480099        2.6726981708  IM1       292             0.0000000000
     11903       562  IM1       C2             25.4561064495      -26.0702451237        2.9243979304  IM1       292             0.0000000000
     11904       562  IM1       DC2            25.4297612447      -26.0899998649        2.9299521853  IM1       292             0.0000000000
     11905       562  IM1       H4             24.4307116948      -25.7539629300        3.0707542457  IM1       292             0.0000000000
     11906       562  IM1       C3             26.6191268729      -25.3617009397        2.9913409170  IM1       292             0.0000000000
     11907       562  IM1       DC3            26.5781781480      -25.3714136383        2.9995256479  IM1       292             0.0000000000
     11908       562  IM1       H5             26.7911636871      -24.3185033658        3.2259281208  IM1       292             0.0000000000
     11909       562  IM1       C4             27.1828629713      -27.4113703089        2.5861077596  IM1       292             0.0000000000
     11910       562  IM1       DC4            27.1533277357      -27.4131392783        2.5926573671  IM1       292             0.0000000000
     11911       562  IM1       H6             27.7559831531      -28.3111831353        2.3625677529  IM1       292             0.0000000000
     11912       562  IM1       N2             27.6949435817      -26.2073317208        2.8033234055  IM1       292             0.0000000000
     11913       562  IM1       DN2            27.6687485850      -26.2102402412        2.8128699458  IM1       292             0.0000000000
     11914       562  IM1       H7             28.6632682796      -25.9576423355        2.8017453342  IM1       292             0.0000000000
     11915       562  IM1       LPN21          27.9875462339      -26.1413404502        2.8086937052  IM1       292             0.0000000000
     11916       563  IM1       C1             12.5125513319      -12.0066091061      -14.4706342834  IM1       293             0.0000000000
     11917       563  IM1       DC1            12.4771809959      -11.9695335993      -14.4731998989  IM1       293             0.0000000000
     11918       563  IM1       H1             13.3967400947      -11.3373582249      -14.4025571921  IM1       293             0.0000000000
     11919       563  IM1       H2             12.5775155186      -12.5966145347      -15.4097797719  IM1       293             0.0000000000
     11920       563  IM1       H3             12.5144273753      -12.6947739502      -13.5984263780  IM1       293             0.0000000000
     11921       563  IM1       N1             11.2953650785      -11.2425630583      -14.4715675746  IM1       293             0.0000000000
     11922       563  IM1       DN1            11.2653745308      -11.2123418412      -14.4749491131  IM1       293             0.0000000000
     11923       563  IM1       C2             11.1985379643       -9.8727092471      -14.3333654009  IM1       293             0.0000000000
     11924       563  IM1       DC2            11.1886192225       -9.8617131120      -14.3483707689  IM1       293             0.0000000000
     11925       563  IM1       H4             12.0575836589       -9.2235336381      -14.2171736485  IM1       293             0.0000000000
     11926       563  IM1       C3              9.8687724010       -9.5838803167      -14.3495526799  IM1       293             0.0000000000
     11927       563  IM1       DC3             9.8492622374       -9.5804681206      -14.3711172681  IM1       293             0.0000000000
     11928       563  IM1       H5              9.3618245599       -8.6302642654      -14.2688723662  IM1       293             0.0000000000
     11929       563  IM1       C4             10.0338183290      -11.7346669104      -14.5836831709  IM1       293             0.0000000000
     11930       563  IM1       DC4            10.0363553201      -11.7203025772      -14.5826764387  IM1       293             0.0000000000
     11931       563  IM1       H6              9.8105445989      -12.7970365987      -14.6817621534  IM1       293             0.0000000000
     11932       563  IM1       N2              9.1374225100      -10.7430286733      -14.5399487470  IM1       293             0.0000000000
     11933       563  IM1       DN2             9.1273128171      -10.7291885987      -14.5549169303  IM1       293             0.0000000000
     11934       563  IM1       H7              8.1424816339      -10.8364668844      -14.5768534049  IM1       293             0.0000000000
     11935       563  IM1       LPN21           8.8401958411      -10.7736683954      -14.5667352119  IM1       293             0.0000000000
     11936       564  IM1       C1             25.5020025244        5.6243663922       16.5005339855  IM1       294             0.0000000000
     11937       564  IM1       DC1            25.4735792338        5.6320711643       16.5197884335  IM1       294             0.0000000000
     11938       564  IM1       H1             25.8192386373        5.1068304172       17.4310385601  IM1       294             0.0000000000
     11939       564  IM1       H2             26.3941828433        6.0248633241       15.9733362170  IM1       294             0.0000000000
     11940       564  IM1       H3             24.9539079196        4.9144730308       15.8448170343  IM1       294             0.0000000000
     11941       564  IM1       N1             24.6214096524        6.6919650909       16.7998497445  IM1       294             0.0000000000
     11942       564  IM1       DN1            24.5992254493        6.7055657458       16.8017213662  IM1       294             0.0000000000
     11943       564  IM1       C2             23.9869717069        6.9016127677       18.0027760317  IM1       294             0.0000000000
     11944       564  IM1       DC2            23.9764135117        6.9054060012       17.9884770876  IM1       294             0.0000000000
     11945       564  IM1       H4             24.2238903812        6.3770586202       18.9201644380  IM1       294             0.0000000000
     11946       564  IM1       C3             23.1115060643        7.9097240928       17.7868097120  IM1       294             0.0000000000
     11947       564  IM1       DC3            23.0927549311        7.9352978462       17.7688868726  IM1       294             0.0000000000
     11948       564  IM1       H5             22.4478955699        8.4130589026       18.4790265717  IM1       294             0.0000000000
     11949       564  IM1       C4             24.1076976999        7.5579695862       15.8950472786  IM1       294             0.0000000000
     11950       564  IM1       DC4            24.0944046991        7.5497719691       15.8996129264  IM1       294             0.0000000000
     11951       564  IM1       H6             24.4344111192        7.6070033597       14.8563201582  IM1       294             0.0000000000
     11952       564  IM1       N2             23.1790475508        8.3185381997       16.4637408256  IM1       294             0.0000000000
     11953       564  IM1       DN2            23.1688951422        8.3282941075       16.4643446354  IM1       294             0.0000000000
     11954       564  IM1       H7             22.6573876949        9.0505156980       16.0254715741  IM1       294             0.0000000000
     11955       564  IM1       LPN21          23.0212135827        8.5329004367       16.3254033040  IM1       294             0.0000000000
     11956       565  IM1       C1              6.2366269147       22.5091169123      -14.9506080841  IM1       295             0.0000000000
     11957       565  IM1       DC1             6.2461881399       22.4823525019      -14.9590279979  IM1       295             0.0000000000
     11958       565  IM1       H1              6.0249344390       21.4843996122      -14.5771623022  IM1       295             0.0000000000
     11959       565  IM1       H2              6.8329680267       23.0633910533      -14.1946461442  IM1       295             0.0000000000
     11960       565  IM1       H3              6.7908802727       22.4590147418      -15.9121765879  IM1       295             0.0000000000
     11961       565  IM1       N1              5.0073817346       23.2120423869      -15.1667787614  IM1       295             0.0000000000
     11962       565  IM1       DN1             5.0251548429       23.2084325119      -15.1710619438  IM1       295             0.0000000000
     11963       565  IM1       C2              3.7369076304       22.7048203087      -15.0071341870  IM1       295             0.0000000000
     11964       565  IM1       DC2             3.7733486681       22.7078423420      -15.0060076413  IM1       295             0.0000000000
     11965       565  IM1       H4              3.5137500832       21.7000753203      -14.6701219950  IM1       295             0.0000000000
     11966       565  IM1       C3              2.8860950193       23.7127559519      -15.3533912687  IM1       295             0.0000000000
     11967       565  IM1       DC3             2.8940620938       23.7088174201      -15.3410312774  IM1       295             0.0000000000
     11968       565  IM1       H5              1.8035085532       23.7395032671      -15.3668123133  IM1       295             0.0000000000
     11969       565  IM1       C4              4.8891376188       24.4906547374      -15.6017457933  IM1       295             0.0000000000
     11970       565  IM1       DC4             4.8857058663       24.4667422949      -15.6073195513  IM1       295             0.0000000000
     11971       565  IM1       H6              5.7419872230       25.1369310163      -15.8092898219  IM1       295             0.0000000000
     11972       565  IM1       N2              3.6118900874       24.8314613569      -15.7253123794  IM1       295             0.0000000000
     11973       565  IM1       DN2             3.6144293743       24.8264589870      -15.7209982032  IM1       295             0.0000000000
     11974       565  IM1       H7              3.2577886127       25.7206950348      -16.0149252464  IM1       295             0.0000000000
     11975       565  IM1       LPN21           3.5108793385       25.0989506506      -15.8161215549  IM1       295             0.0000000000
     11976       566  IM1       C1            -21.1328476775      -11.6300535529        2.9973461549  IM1       296             0.0000000000
     11977       566  IM1       DC1           -21.1113483631      -11.6214515398        3.0027848153  IM1       296             0.0000000000
     11978       566  IM1       H1            -20.1705441175      -11.5718715529        2.4451616621  IM1       296             0.0000000000
     11979       566  IM1       H2            -21.3362898887      -12.6896081248        3.2624430725  IM1       296             0.0000000000
     11980       566  IM1       H3            -21.0796744695      -11.0088295896        3.9168973492  IM1       296             0.0000000000
     11981       566  IM1       N1            -22.2044596219      -11.1481800112        2.1711197813  IM1       296             0.0000000000
     11982       566  IM1       DN1           -22.1934573509      -11.1488578841        2.1827995805  IM1       296             0.0000000000
     11983       566  IM1       C2            -22.0683522351      -10.6306961644        0.8980099273  IM1       296             0.0000000000
     11984       566  IM1       DC2           -22.0423106033      -10.6400707952        0.9211631955  IM1       296             0.0000000000
     11985       566  IM1       H4            -21.1176206728      -10.4754162953        0.4031496858  IM1       296             0.0000000000
     11986       566  IM1       C3            -23.3370789012      -10.4630516243        0.4261421691  IM1       296             0.0000000000
     11987       566  IM1       DC3           -23.3113017759      -10.4670300194        0.4286046654  IM1       296             0.0000000000
     11988       566  IM1       H5            -23.6843124214      -10.1233116361       -0.5417910016  IM1       296             0.0000000000
     11989       566  IM1       C4            -23.5321448908      -11.2759212128        2.4276730645  IM1       296             0.0000000000
     11990       566  IM1       DC4           -23.5052457884      -11.2690779899        2.4250882773  IM1       296             0.0000000000
     11991       566  IM1       H6            -23.9394359649      -11.7237388169        3.3341350744  IM1       296             0.0000000000
     11992       566  IM1       N2            -24.2501008221      -10.8620057807        1.3874883283  IM1       296             0.0000000000
     11993       566  IM1       DN2           -24.2343669859      -10.8607471085        1.3849249969  IM1       296             0.0000000000
     11994       566  IM1       H7            -25.2463261576      -10.8849091876        1.3037595029  IM1       296             0.0000000000
     11995       566  IM1       LPN21         -24.5497408886      -10.8592768153        1.3730528408  IM1       296             0.0000000000
     11996       567  IM1       C1             -3.1053586350       10.3770109870       -5.8883391230  IM1       297             0.0000000000
     11997       567  IM1       DC1            -3.0610018207       10.3367306468       -5.8703253212  IM1       297             0.0000000000
     11998       567  IM1       H1             -3.8359543602        9.5483789088       -5.7703570679  IM1       297             0.0000000000
     11999       567  IM1       H2             -3.2771944876       10.8717489002       -6.8681492267  IM1       297             0.0000000000
     12000       567  IM1       H3             -3.2654844558       11.1194481595       -5.0774952624  IM1       297             0.0000000000
     12001       567  IM1       N1             -1.7568553983        9.8751906972       -5.8380032802  IM1       297             0.0000000000
     12002       567  IM1       DN1            -1.7152298417        9.8599810646       -5.8299843180  IM1       297             0.0000000000
     12003       567  IM1       C2             -1.3792814922        8.5950511954       -5.4948779260  IM1       297             0.0000000000
     12004       567  IM1       DC2            -1.3564089851        8.5971052018       -5.5023823353  IM1       297             0.0000000000
     12005       567  IM1       H4             -2.0838261006        7.8088917627       -5.2530944671  IM1       297             0.0000000000
     12006       567  IM1       C3             -0.0257916329        8.5584130708       -5.5991973035  IM1       297             0.0000000000
     12007       567  IM1       DC3             0.0176188567        8.5502004168       -5.5981893366  IM1       297             0.0000000000
     12008       567  IM1       H5              0.6587032059        7.7312440744       -5.4572562346  IM1       297             0.0000000000
     12009       567  IM1       C4             -0.6243429641       10.5699855136       -6.1197594397  IM1       297             0.0000000000
     12010       567  IM1       DC4            -0.6109709583       10.5626436736       -6.1039545454  IM1       297             0.0000000000
     12011       567  IM1       H6             -0.6300149752       11.6242716772       -6.3964334602  IM1       297             0.0000000000
     12012       567  IM1       N2              0.4563697896        9.7986644369       -5.9682856953  IM1       297             0.0000000000
     12013       567  IM1       DN2             0.4794844183        9.7980516553       -5.9543263451  IM1       297             0.0000000000
     12014       567  IM1       H7              1.4114898568       10.0630448392       -6.1018845736  IM1       297             0.0000000000
     12015       567  IM1       LPN21           0.7411761938        9.8841718431       -6.0079567883  IM1       297             0.0000000000
     12016       568  IM1       C1            -15.5810735473       13.6413311024      -25.6811803473  IM1       298             0.0000000000
     12017       568  IM1       DC1           -15.6018164963       13.6515304786      -25.6814086436  IM1       298             0.0000000000
     12018       568  IM1       H1            -16.6832536094       13.5634724794      -25.7971895991  IM1       298             0.0000000000
     12019       568  IM1       H2            -15.2709791284       13.1273565243      -24.7463046408  IM1       298             0.0000000000
     12020       568  IM1       H3            -15.0802021420       13.1672291260      -26.5522005257  IM1       298             0.0000000000
     12021       568  IM1       N1            -15.1826751887       15.0174435246      -25.6000859617  IM1       298             0.0000000000
     12022       568  IM1       DN1           -15.1909323112       15.0254737093      -25.6053540325  IM1       298             0.0000000000
     12023       568  IM1       C2            -16.0391467200       16.0960272636      -25.5379117963  IM1       298             0.0000000000
     12024       568  IM1       DC2           -16.0507747974       16.0826284212      -25.5413476390  IM1       298             0.0000000000
     12025       568  IM1       H4            -17.1155029035       16.0174205598      -25.6282852006  IM1       298             0.0000000000
     12026       568  IM1       C3            -15.2460892860       17.1986650342      -25.4238057799  IM1       298             0.0000000000
     12027       568  IM1       DC3           -15.2534382120       17.2078664893      -25.4399615654  IM1       298             0.0000000000
     12028       568  IM1       H5            -15.5142090834       18.2471479136      -25.3827640225  IM1       298             0.0000000000
     12029       568  IM1       C4            -13.9132343213       15.4936121155      -25.5221103599  IM1       298             0.0000000000
     12030       568  IM1       DC4           -13.9416133206       15.4984553332      -25.5261417077  IM1       298             0.0000000000
     12031       568  IM1       H6            -13.0248323077       14.8625831185      -25.5474927765  IM1       298             0.0000000000
     12032       568  IM1       N2            -13.9154406986       16.8241862601      -25.4298022231  IM1       298             0.0000000000
     12033       568  IM1       DN2           -13.9243161428       16.8329309371      -25.4328477780  IM1       298             0.0000000000
     12034       568  IM1       H7            -13.1133621161       17.4190499301      -25.3768195511  IM1       298             0.0000000000
     12035       568  IM1       LPN21         -13.6722543187       16.9991458987      -25.4140063536  IM1       298             0.0000000000
     12036       569  IM1       C1            -21.2558326925      -18.1065638813       20.0714663135  IM1       299             0.0000000000
     12037       569  IM1       DC1           -21.2810174360      -18.1044172506       20.0837818211  IM1       299             0.0000000000
     12038       569  IM1       H1            -21.6398216571      -19.0169742627       20.5794293190  IM1       299             0.0000000000
     12039       569  IM1       H2            -20.3325526904      -17.7566876602       20.5808401146  IM1       299             0.0000000000
     12040       569  IM1       H3            -21.0288068641      -18.3468740647       19.0107913921  IM1       299             0.0000000000
     12041       569  IM1       N1            -22.2350377614      -17.0601738805       20.1088785307  IM1       299             0.0000000000
     12042       569  IM1       DN1           -22.2542799660      -17.0547038856       20.1143114780  IM1       299             0.0000000000
     12043       569  IM1       C2            -23.4866440720      -17.1295878509       20.6876683353  IM1       299             0.0000000000
     12044       569  IM1       DC2           -23.4890257357      -17.1539915434       20.6982883253  IM1       299             0.0000000000
     12045       569  IM1       H4            -23.8577687865      -17.9993616895       21.2155404015  IM1       299             0.0000000000
     12046       569  IM1       C3            -24.0715024299      -15.9214808359       20.4499434867  IM1       299             0.0000000000
     12047       569  IM1       DC3           -24.0865113336      -15.9423128480       20.4464914901  IM1       299             0.0000000000
     12048       569  IM1       H5            -25.0392621274      -15.5394802735       20.7506189588  IM1       299             0.0000000000
     12049       569  IM1       C4            -22.1059196848      -15.8347512760       19.5407294897  IM1       299             0.0000000000
     12050       569  IM1       DC4           -22.1133594167      -15.8545744986       19.5467812418  IM1       299             0.0000000000
     12051       569  IM1       H6            -21.2030089012      -15.4970879132       19.0319706369  IM1       299             0.0000000000
     12052       569  IM1       N2            -23.2173999492      -15.1215386463       19.7122630016  IM1       299             0.0000000000
     12053       569  IM1       DN2           -23.2292422906      -15.1361721510       19.7104671821  IM1       299             0.0000000000
     12054       569  IM1       H7            -23.3727757705      -14.1781404145       19.4192474211  IM1       299             0.0000000000
     12055       569  IM1       LPN21         -23.2645493314      -14.8440602783       19.6084232642  IM1       299             0.0000000000
     12056       570  IM1       C1             -3.0206000633       12.4599546699      -29.2411410061  IM1       300             0.0000000000
     12057       570  IM1       DC1            -2.9987235422       12.4473142155      -29.2231783947  IM1       300             0.0000000000
     12058       570  IM1       H1             -3.4197995023       11.6919856458      -29.9376927894  IM1       300             0.0000000000
     12059       570  IM1       H2             -2.1361787214       12.9516073810      -29.6998320808  IM1       300             0.0000000000
     12060       570  IM1       H3             -3.8162816889       13.2115238743      -29.0504698713  IM1       300             0.0000000000
     12061       570  IM1       N1             -2.6309388395       11.8566999977      -27.9975350351  IM1       300             0.0000000000
     12062       570  IM1       DN1            -2.6192978210       11.8397118055      -27.9822289686  IM1       300             0.0000000000
     12063       570  IM1       C2             -2.5549819768       10.5016303342      -27.7570711434  IM1       300             0.0000000000
     12064       570  IM1       DC2            -2.5473274551       10.4984228242      -27.7515309328  IM1       300             0.0000000000
     12065       570  IM1       H4             -2.9168923607        9.7594800096      -28.4578726629  IM1       300             0.0000000000
     12066       570  IM1       C3             -2.0689942417       10.3716212432      -26.4913391077  IM1       300             0.0000000000
     12067       570  IM1       DC3            -2.0590335926       10.3539109333      -26.4807608770  IM1       300             0.0000000000
     12068       570  IM1       H5             -1.9321647581        9.4837853538      -25.8864307462  IM1       300             0.0000000000
     12069       570  IM1       C4             -2.1768558585       12.4972071047      -26.8891819990  IM1       300             0.0000000000
     12070       570  IM1       DC4            -2.1630827187       12.4830364777      -26.9042317926  IM1       300             0.0000000000
     12071       570  IM1       H6             -2.1481562313       13.5817276995      -26.7838662313  IM1       300             0.0000000000
     12072       570  IM1       N2             -1.8130811540       11.6182799484      -25.9538897023  IM1       300             0.0000000000
     12073       570  IM1       DN2            -1.8041691545       11.6070083880      -25.9577537701  IM1       300             0.0000000000
     12074       570  IM1       H7             -1.4859231448       11.8275055493      -25.0323734057  IM1       300             0.0000000000
     12075       570  IM1       LPN21          -1.6996975989       11.6856163423      -25.6844273126  IM1       300             0.0000000000
     12076       571  IM1       C1             23.8801263066        1.5244177215       10.9814379486  IM1       301             0.0000000000
     12077       571  IM1       DC1            23.8375185113        1.5374874624       10.9503484309  IM1       301             0.0000000000
     12078       571  IM1       H1             23.2270575671        0.6261187425       11.0111223868  IM1       301             0.0000000000
     12079       571  IM1       H2             24.0496002879        1.8769483171       12.0213041664  IM1       301             0.0000000000
     12080       571  IM1       H3             24.8555403441        1.2505197399       10.5255121304  IM1       301             0.0000000000
     12081       571  IM1       N1             23.2710802509        2.5733535327       10.2012462762  IM1       301             0.0000000000
     12082       571  IM1       DN1            23.2311221909        2.5856003972       10.1771342325  IM1       301             0.0000000000
     12083       571  IM1       C2             22.0330072736        2.5056737392        9.5943605071  IM1       301             0.0000000000
     12084       571  IM1       DC2            22.0125592698        2.5241991180        9.5728925472  IM1       301             0.0000000000
     12085       571  IM1       H4             21.3900883204        1.6365147628        9.6584455566  IM1       301             0.0000000000
     12086       571  IM1       C3             21.8414564049        3.7060984172        8.9875056371  IM1       301             0.0000000000
     12087       571  IM1       DC3            21.8149745613        3.7454577934        8.9580634411  IM1       301             0.0000000000
     12088       571  IM1       H5             20.9900085802        4.0694432506        8.4254503606  IM1       301             0.0000000000
     12089       571  IM1       C4             23.7848010296        3.8081611644        9.9473173374  IM1       301             0.0000000000
     12090       571  IM1       DC4            23.7485457510        3.7974606407        9.9365822436  IM1       301             0.0000000000
     12091       571  IM1       H6             24.7461400324        4.1413687120       10.3383416998  IM1       301             0.0000000000
     12092       571  IM1       N2             22.9293419315        4.5293707388        9.2018851459  IM1       301             0.0000000000
     12093       571  IM1       DN2            22.9084418897        4.5461344973        9.1822044931  IM1       301             0.0000000000
     12094       571  IM1       H7             23.0544924368        5.4753470983        8.9027763391  IM1       301             0.0000000000
     12095       571  IM1       LPN21          22.9716560326        4.8102402069        9.1053353724  IM1       301             0.0000000000
     12096       572  IM1       C1             28.8718591380      -18.4730587404      -28.9752601700  IM1       302             0.0000000000
     12097       572  IM1       DC1            28.8698437594      -18.4590576931      -28.9930466871  IM1       302             0.0000000000
     12098       572  IM1       H1             29.5104944509      -17.5804676067      -29.1477333769  IM1       302             0.0000000000
     12099       572  IM1       H2             28.7414230187      -19.0443387534      -29.9191598289  IM1       302             0.0000000000
     12100       572  IM1       H3             29.3477232300      -19.1245301962      -28.2114150886  IM1       302             0.0000000000
     12101       572  IM1       N1             27.5825468468      -18.0698752442      -28.4994580142  IM1       302             0.0000000000
     12102       572  IM1       DN1            27.5773988649      -18.0670217348      -28.5101451724  IM1       302             0.0000000000
     12103       572  IM1       C2             27.0447500539      -16.7999616600      -28.5662800751  IM1       302             0.0000000000
     12104       572  IM1       DC2            27.0542972108      -16.8006742292      -28.5899961104  IM1       302             0.0000000000
     12105       572  IM1       H4             27.5998468271      -15.9264158860      -28.8851442367  IM1       302             0.0000000000
     12106       572  IM1       C3             25.7838764136      -16.9055015819      -28.0584324449  IM1       302             0.0000000000
     12107       572  IM1       DC3            25.7806716946      -16.8927628297      -28.0763329933  IM1       302             0.0000000000
     12108       572  IM1       H5             25.0336866210      -16.1443180114      -27.8832073124  IM1       302             0.0000000000
     12109       572  IM1       C4             26.6355295570      -18.8971505724      -27.9909394788  IM1       302             0.0000000000
     12110       572  IM1       DC4            26.6488276042      -18.8871113995      -28.0034645666  IM1       302             0.0000000000
     12111       572  IM1       H6             26.7962577530      -19.9606638928      -27.8142876621  IM1       302             0.0000000000
     12112       572  IM1       N2             25.5215811257      -18.2204587578      -27.7180588844  IM1       302             0.0000000000
     12113       572  IM1       DN2            25.5250355949      -18.2099731789      -27.7287238850  IM1       302             0.0000000000
     12114       572  IM1       H7             24.6871235881      -18.5878935151      -27.3073615294  IM1       302             0.0000000000
     12115       572  IM1       LPN21          25.2692838319      -18.3375252639      -27.6056244206  IM1       302             0.0000000000
     12116       573  IM1       C1            -15.1113222162        0.4536457461      -29.5752710914  IM1       303             0.0000000000
     12117       573  IM1       DC1           -15.0912938820        0.4684996610      -29.5711345670  IM1       303             0.0000000000
     12118       573  IM1       H1            -14.0785477468        0.5727249734      -29.9670848671  IM1       303             0.0000000000
     12119       573  IM1       H2            -15.7556370698        1.2718029583      -29.9623087468  IM1       303             0.0000000000
     12120       573  IM1       H3            -15.5206308064       -0.5292688862      -29.8925506270  IM1       303             0.0000000000
     12121       573  IM1       N1            -15.1093773747        0.5082938431      -28.1405611840  IM1       303             0.0000000000
     12122       573  IM1       DN1           -15.0845891445        0.5182229266      -28.1288844238  IM1       303             0.0000000000
     12123       573  IM1       C2            -13.9936882587        0.6343809355      -27.3373798602  IM1       303             0.0000000000
     12124       573  IM1       DC2           -13.9893405849        0.6342248542      -27.3189101390  IM1       303             0.0000000000
     12125       573  IM1       H4            -12.9881059097        0.7080389391      -27.7326868797  IM1       303             0.0000000000
     12126       573  IM1       C3            -14.4514385388        0.6393340400      -26.0564213230  IM1       303             0.0000000000
     12127       573  IM1       DC3           -14.4342866384        0.6439064972      -26.0251655718  IM1       303             0.0000000000
     12128       573  IM1       H5            -13.9084957342        0.6903066253      -25.1207376657  IM1       303             0.0000000000
     12129       573  IM1       C4            -16.1976469217        0.4431053730      -27.3308712175  IM1       303             0.0000000000
     12130       573  IM1       DC4           -16.1549907584        0.4639454531      -27.3264426623  IM1       303             0.0000000000
     12131       573  IM1       H6            -17.2084950730        0.2787095486      -27.7040468168  IM1       303             0.0000000000
     12132       573  IM1       N2            -15.8285466647        0.5284080923      -26.0458936147  IM1       303             0.0000000000
     12133       573  IM1       DN2           -15.8157614792        0.5364570738      -26.0263937581  IM1       303             0.0000000000
     12134       573  IM1       H7            -16.4296454538        0.4564136438      -25.2499683386  IM1       303             0.0000000000
     12135       573  IM1       LPN21         -16.0127922244        0.5237209755      -25.8091836558  IM1       303             0.0000000000
     12136       574  IM1       C1              8.1843590568      -27.4679533290       -3.0710192499  IM1       304             0.0000000000
     12137       574  IM1       DC1             8.1853634699      -27.4593739379       -3.0891841168  IM1       304             0.0000000000
     12138       574  IM1       H1              7.6469316760      -27.8192917305       -3.9776912620  IM1       304             0.0000000000
     12139       574  IM1       H2              7.5692670555      -26.7112200000       -2.5387246890  IM1       304             0.0000000000
     12140       574  IM1       H3              8.3738558908      -28.3339304341       -2.4013211065  IM1       304             0.0000000000
     12141       574  IM1       N1              9.4387293235      -26.8746779606       -3.4362763789  IM1       304             0.0000000000
     12142       574  IM1       DN1             9.4416985769      -26.8686589420       -3.4306744193  IM1       304             0.0000000000
     12143       574  IM1       C2              9.9339328091      -26.7365528249       -4.7154210274  IM1       304             0.0000000000
     12144       574  IM1       DC2             9.9124870430      -26.7373671125       -4.7008692228  IM1       304             0.0000000000
     12145       574  IM1       H4              9.4252598463      -27.0803445979       -5.6075802249  IM1       304             0.0000000000
     12146       574  IM1       C3             11.1484103841      -26.1305832775       -4.5847123174  IM1       304             0.0000000000
     12147       574  IM1       DC3            11.1432818021      -26.1355570630       -4.5748428956  IM1       304             0.0000000000
     12148       574  IM1       H5             11.8716117761      -25.8510948776       -5.3408571322  IM1       304             0.0000000000
     12149       574  IM1       C4             10.3526308090      -26.3523067073       -2.5797377021  IM1       304             0.0000000000
     12150       574  IM1       DC4            10.3444956516      -26.3540705186       -2.5898079444  IM1       304             0.0000000000
     12151       574  IM1       H6             10.2186064991      -26.3364687249       -1.4981247202  IM1       304             0.0000000000
     12152       574  IM1       N2             11.4085397644      -25.8826772999       -3.2462347221  IM1       304             0.0000000000
     12153       574  IM1       DN2            11.4143402989      -25.8752012264       -3.2477484933  IM1       304             0.0000000000
     12154       574  IM1       H7             12.2271058657      -25.4655886182       -2.8512833713  IM1       304             0.0000000000
     12155       574  IM1       LPN21          11.6488659726      -25.7516406012       -3.1234638084  IM1       304             0.0000000000
     12156       575  IM1       C1            -22.8367371646      -11.8858904003        5.8491396449  IM1       305             0.0000000000
     12157       575  IM1       DC1           -22.7893516776      -11.8615441333        5.8429172371  IM1       305             0.0000000000
     12158       575  IM1       H1            -21.9191332287      -12.4518624632        5.5808121601  IM1       305             0.0000000000
     12159       575  IM1       H2            -22.7835248543      -11.5614904928        6.9103908646  IM1       305             0.0000000000
     12160       575  IM1       H3            -22.9762870200      -11.0062314713        5.1850259450  IM1       305             0.0000000000
     12161       575  IM1       N1            -23.9679589281      -12.7312964136        5.7081134029  IM1       305             0.0000000000
     12162       575  IM1       DN1           -23.9418458834      -12.6853518430        5.7183677561  IM1       305             0.0000000000
     12163       575  IM1       C2            -23.9704789589      -14.0061929397        5.2016275106  IM1       305             0.0000000000
     12164       575  IM1       DC2           -23.9266350096      -13.9416996967        5.2081531763  IM1       305             0.0000000000
     12165       575  IM1       H4            -23.1025171388      -14.5419163472        4.8375784623  IM1       305             0.0000000000
     12166       575  IM1       C3            -25.2559609976      -14.4460685073        5.3131104395  IM1       305             0.0000000000
     12167       575  IM1       DC3           -25.2087712069      -14.4182569447        5.3150798321  IM1       305             0.0000000000
     12168       575  IM1       H5            -25.6952876697      -15.3970932925        5.0384598729  IM1       305             0.0000000000
     12169       575  IM1       C4            -25.2293125314      -12.4316616554        6.0968526730  IM1       305             0.0000000000
     12170       575  IM1       DC4           -25.1995016346      -12.4213583808        6.0923011678  IM1       305             0.0000000000
     12171       575  IM1       H6            -25.5323028000      -11.4660623226        6.5017166323  IM1       305             0.0000000000
     12172       575  IM1       N2            -26.0371573505      -13.4558432331        5.8848323844  IM1       305             0.0000000000
     12173       575  IM1       DN2           -26.0174843196      -13.4467368452        5.8850747353  IM1       305             0.0000000000
     12174       575  IM1       H7            -27.0213156492      -13.4931992727        6.0581441536  IM1       305             0.0000000000
     12175       575  IM1       LPN21         -26.3296878973      -13.4620455000        5.9510699195  IM1       305             0.0000000000
     12176       576  IM1       C1             15.5988960508      -23.0518566836       24.5640261389  IM1       306             0.0000000000
     12177       576  IM1       DC1            15.5720777710      -23.0542173814       24.5734018246  IM1       306             0.0000000000
     12178       576  IM1       H1             16.1247256195      -22.2876273129       23.9526524934  IM1       306             0.0000000000
     12179       576  IM1       H2             14.9987098379      -22.5536926258       25.3551835714  IM1       306             0.0000000000
     12180       576  IM1       H3             14.9562454218      -23.6623823937       23.8942653410  IM1       306             0.0000000000
     12181       576  IM1       N1             16.5603804690      -23.9075573347       25.1834258181  IM1       306             0.0000000000
     12182       576  IM1       DN1            16.5164194491      -23.9275552993       25.1926682406  IM1       306             0.0000000000
     12183       576  IM1       C2             17.9224351389      -23.7789653427       25.0891199659  IM1       306             0.0000000000
     12184       576  IM1       DC2            17.8595212513      -23.7940331497       25.1081636728  IM1       306             0.0000000000
     12185       576  IM1       H4             18.4198127757      -23.0046606596       24.5181937499  IM1       306             0.0000000000
     12186       576  IM1       C3             18.4512658408      -24.8123202025       25.8029952782  IM1       306             0.0000000000
     12187       576  IM1       DC3            18.4265324293      -24.8303986396       25.7949816171  IM1       306             0.0000000000
     12188       576  IM1       H5             19.4883902795      -25.0683379993       25.9810873509  IM1       306             0.0000000000
     12189       576  IM1       C4             16.2981323295      -25.0011058790       25.9399186037  IM1       306             0.0000000000
     12190       576  IM1       DC4            16.2694222464      -25.0141591093       25.9296789586  IM1       306             0.0000000000
     12191       576  IM1       H6             15.2946535348      -25.3223557565       26.2190759514  IM1       306             0.0000000000
     12192       576  IM1       N2             17.4240021166      -25.5943599464       26.3170682445  IM1       306             0.0000000000
     12193       576  IM1       DN2            17.4054703786      -25.6051690963       26.3104797155  IM1       306             0.0000000000
     12194       576  IM1       H7             17.5138086459      -26.4028595151       26.8986722634  IM1       306             0.0000000000
     12195       576  IM1       LPN21          17.4419680154      -25.8456681483       26.4799222103  IM1       306             0.0000000000
     12196       577  IM1       C1             -6.6389285081       14.9594226224      -22.7690392326  IM1       307             0.0000000000
     12197       577  IM1       DC1            -6.6266489751       14.9596358918      -22.7731614262  IM1       307             0.0000000000
     12198       577  IM1       H1             -6.2569880367       15.8454376024      -22.2182035642  IM1       307             0.0000000000
     12199       577  IM1       H2             -5.8565804991       14.5721909083      -23.4562831434  IM1       307             0.0000000000
     12200       577  IM1       H3             -6.9154345987       14.1660585767      -22.0421012209  IM1       307             0.0000000000
     12201       577  IM1       N1             -7.8022487646       15.3230490259      -23.5271758676  IM1       307             0.0000000000
     12202       577  IM1       DN1            -7.7985642298       15.3118497741      -23.5313480035  IM1       307             0.0000000000
     12203       577  IM1       C2             -8.2026375967       16.6043945414      -23.8286331875  IM1       307             0.0000000000
     12204       577  IM1       DC2            -8.1983048177       16.5824705169      -23.8117470718  IM1       307             0.0000000000
     12205       577  IM1       H4             -7.6872560113       17.4906841291      -23.4796896562  IM1       307             0.0000000000
     12206       577  IM1       C3             -9.3221635674       16.4796842945      -24.5976826084  IM1       307             0.0000000000
     12207       577  IM1       DC3            -9.3173422322       16.4767697813      -24.5895795263  IM1       307             0.0000000000
     12208       577  IM1       H5             -9.9570038468       17.2441250551      -25.0283764013  IM1       307             0.0000000000
     12209       577  IM1       C4             -8.6775103355       14.4705929656      -24.1143010338  IM1       307             0.0000000000
     12210       577  IM1       DC4            -8.6689314116       14.4762372572      -24.1194048404  IM1       307             0.0000000000
     12211       577  IM1       H6             -8.6067580353       13.3862583030      -24.0287881616  IM1       307             0.0000000000
     12212       577  IM1       N2             -9.6201418627       15.1382648782      -24.7729949088  IM1       307             0.0000000000
     12213       577  IM1       DN2            -9.6181070928       15.1335944278      -24.7744803740  IM1       307             0.0000000000
     12214       577  IM1       H7            -10.3819941428       14.7512274035      -25.2924013936  IM1       307             0.0000000000
     12215       577  IM1       LPN21          -9.8471069627       15.0149480782      -24.9255721358  IM1       307             0.0000000000
     12216       578  IM1       C1            -22.7566925132       14.0924587783       28.1122400034  IM1       308             0.0000000000
     12217       578  IM1       DC1           -22.7575618439       14.0817914705       28.1209321163  IM1       308             0.0000000000
     12218       578  IM1       H1            -22.6905417744       13.0683759126       28.5379151892  IM1       308             0.0000000000
     12219       578  IM1       H2            -22.1514712331       14.8058591575       28.7114796068  IM1       308             0.0000000000
     12220       578  IM1       H3            -22.3567417135       14.0733371490       27.0759028374  IM1       308             0.0000000000
     12221       578  IM1       N1            -24.1357936368       14.5084949542       28.0668848878  IM1       308             0.0000000000
     12222       578  IM1       DN1           -24.1297110621       14.5188157162       28.0873347233  IM1       308             0.0000000000
     12223       578  IM1       C2            -25.0473847107       13.9118730802       27.2347305432  IM1       308             0.0000000000
     12224       578  IM1       DC2           -25.0160481959       13.9206426187       27.2606266321  IM1       308             0.0000000000
     12225       578  IM1       H4            -24.9382941214       12.9103902863       26.8372126735  IM1       308             0.0000000000
     12226       578  IM1       C3            -26.0407118615       14.8234208597       27.0336560861  IM1       308             0.0000000000
     12227       578  IM1       DC3           -26.0296812331       14.8319978106       27.0522750972  IM1       308             0.0000000000
     12228       578  IM1       H5            -26.9194631168       14.7618480766       26.4036608293  IM1       308             0.0000000000
     12229       578  IM1       C4            -24.6142186172       15.7424170036       28.3679106294  IM1       308             0.0000000000
     12230       578  IM1       DC4           -24.6061443540       15.7353897847       28.3701295858  IM1       308             0.0000000000
     12231       578  IM1       H6            -24.0940351388       16.4497981194       29.0137597649  IM1       308             0.0000000000
     12232       578  IM1       N2            -25.7711814829       15.9726535876       27.7543040337  IM1       308             0.0000000000
     12233       578  IM1       DN2           -25.7720192453       15.9780974372       27.7556471728  IM1       308             0.0000000000
     12234       578  IM1       H7            -26.2862055476       16.8298292535       27.7540030760  IM1       308             0.0000000000
     12235       578  IM1       LPN21         -25.9331100932       16.2244396241       27.7738722993  IM1       308             0.0000000000
     12236       579  IM1       C1             11.3904880703      -26.6167190747       28.7238402245  IM1       309             0.0000000000
     12237       579  IM1       DC1            11.4058866380      -26.6336312695       28.6978205027  IM1       309             0.0000000000
     12238       579  IM1       H1             12.2630255326      -27.3012686312       28.7901069799  IM1       309             0.0000000000
     12239       579  IM1       H2             11.0179863950      -26.5658402461       27.6783858508  IM1       309             0.0000000000
     12240       579  IM1       H3             10.5774637257      -26.9746569789       29.3910679756  IM1       309             0.0000000000
     12241       579  IM1       N1             11.7722056240      -25.3031361383       29.1431261587  IM1       309             0.0000000000
     12242       579  IM1       DN1            11.7611005836      -25.3181943524       29.1268885671  IM1       309             0.0000000000
     12243       579  IM1       C2             13.0531792818      -24.8387265066       29.3536099548  IM1       309             0.0000000000
     12244       579  IM1       DC2            13.0276439695      -24.8662480336       29.3255078301  IM1       309             0.0000000000
     12245       579  IM1       H4             13.9329792021      -25.4659379629       29.4274130018  IM1       309             0.0000000000
     12246       579  IM1       C3             12.9423736687      -23.4880100394       29.5179805928  IM1       309             0.0000000000
     12247       579  IM1       DC3            12.9416985064      -23.5091977352       29.4978554218  IM1       309             0.0000000000
     12248       579  IM1       H5             13.6977694616      -22.7398340542       29.7241331859  IM1       309             0.0000000000
     12249       579  IM1       C4             10.9423940296      -24.2375462988       29.1647325638  IM1       309             0.0000000000
     12250       579  IM1       DC4            10.9564865310      -24.2560028676       29.1493444907  IM1       309             0.0000000000
     12251       579  IM1       H6              9.8693948111      -24.3048029356       28.9851518806  IM1       309             0.0000000000
     12252       579  IM1       N2             11.6207685743      -23.1118991935       29.3729488063  IM1       309             0.0000000000
     12253       579  IM1       DN2            11.6269294640      -23.1214161679       29.3615567598  IM1       309             0.0000000000
     12254       579  IM1       H7             11.2415868888      -22.1873997258       29.4119614145  IM1       309             0.0000000000
     12255       579  IM1       LPN21          11.5026923789      -22.8363564691       29.3845341016  IM1       309             0.0000000000
     12256       580  IM1       C1            -10.2641198081      -14.8115191597        2.2215869151  IM1       310             0.0000000000
     12257       580  IM1       DC1           -10.2576951571      -14.8128058019        2.2039763884  IM1       310             0.0000000000
     12258       580  IM1       H1             -9.6533849158      -15.0803998360        1.3333149549  IM1       310             0.0000000000
     12259       580  IM1       H2            -11.0541882293      -14.0858383743        1.9326227510  IM1       310             0.0000000000
     12260       580  IM1       H3            -10.7184081932      -15.7288871067        2.6533033881  IM1       310             0.0000000000
     12261       580  IM1       N1             -9.4274751931      -14.2130247181        3.2064098812  IM1       310             0.0000000000
     12262       580  IM1       DN1            -9.4469157880      -14.2109365189        3.2151449910  IM1       310             0.0000000000
     12263       580  IM1       C2             -8.1522962527      -13.7269835201        3.0268744557  IM1       310             0.0000000000
     12264       580  IM1       DC2            -8.1844799956      -13.7453863573        3.0338574956  IM1       310             0.0000000000
     12265       580  IM1       H4             -7.5671329559      -13.8209242974        2.1204264167  IM1       310             0.0000000000
     12266       580  IM1       C3             -7.8100004028      -13.1378565636        4.1995373731  IM1       310             0.0000000000
     12267       580  IM1       DC3            -7.8192571168      -13.1433196479        4.2073418846  IM1       310             0.0000000000
     12268       580  IM1       H5             -6.8880106750      -12.6501553013        4.4910359507  IM1       310             0.0000000000
     12269       580  IM1       C4             -9.8155269002      -13.9064238275        4.4636169940  IM1       310             0.0000000000
     12270       580  IM1       DC4            -9.8296233105      -13.8876539303        4.4536849118  IM1       310             0.0000000000
     12271       580  IM1       H6            -10.7889585262      -14.1733284843        4.8750690248  IM1       310             0.0000000000
     12272       580  IM1       N2             -8.8559988767      -13.2460913625        5.0981671221  IM1       310             0.0000000000
     12273       580  IM1       DN2            -8.8656738911      -13.2366534671        5.0962113879  IM1       310             0.0000000000
     12274       580  IM1       H7             -8.8845592483      -12.9040767908        6.0374276497  IM1       310             0.0000000000
     12275       580  IM1       LPN21          -8.8719441113      -13.1446127797        5.3800320662  IM1       310             0.0000000000
     12276       581  IM1       C1              3.4507875568      -10.4985044322       12.8743563964  IM1       311             0.0000000000
     12277       581  IM1       DC1             3.4737027425      -10.4830579315       12.8410293271  IM1       311             0.0000000000
     12278       581  IM1       H1              3.6779831668       -9.4814933514       12.4891400750  IM1       311             0.0000000000
     12279       581  IM1       H2              2.7215623685      -11.0071700924       12.2081650797  IM1       311             0.0000000000
     12280       581  IM1       H3              4.3818156628      -11.0996758290       12.9524628314  IM1       311             0.0000000000
     12281       581  IM1       N1              2.8705339532      -10.4022234483       14.1715188219  IM1       311             0.0000000000
     12282       581  IM1       DN1             2.8894686429      -10.4176196413       14.1358933663  IM1       311             0.0000000000
     12283       581  IM1       C2              2.6232532884       -9.2466467762       14.8813599774  IM1       311             0.0000000000
     12284       581  IM1       DC2             2.6479821892       -9.2624618117       14.8159132581  IM1       311             0.0000000000
     12285       581  IM1       H4              2.8466296003       -8.2398267482       14.5507462230  IM1       311             0.0000000000
     12286       581  IM1       C3              2.0768533452       -9.6452786387       16.0656691007  IM1       311             0.0000000000
     12287       581  IM1       DC3             2.1004817635       -9.6467476831       16.0120305114  IM1       311             0.0000000000
     12288       581  IM1       H5              1.7521954826       -9.0661437471       16.9212911262  IM1       311             0.0000000000
     12289       581  IM1       C4              2.4786912589      -11.4525133450       14.9298956000  IM1       311             0.0000000000
     12290       581  IM1       DC4             2.4998064752      -11.4352573158       14.9071030121  IM1       311             0.0000000000
     12291       581  IM1       H6              2.5545557187      -12.4951795069       14.6213638213  IM1       311             0.0000000000
     12292       581  IM1       N2              2.0025688480      -11.0302226099       16.0901677390  IM1       311             0.0000000000
     12293       581  IM1       DN2             2.0239180884      -11.0202751032       16.0735161536  IM1       311             0.0000000000
     12294       581  IM1       H7              1.6511897827      -11.6016733991       16.8317719118  IM1       311             0.0000000000
     12295       581  IM1       LPN21           1.9008251944      -11.2082312658       16.3091680755  IM1       311             0.0000000000
     12296       582  IM1       C1              3.0897669890      -13.6677528875       19.3574651370  IM1       312             0.0000000000
     12297       582  IM1       DC1             3.1322282112      -13.6622194939       19.3572972205  IM1       312             0.0000000000
     12298       582  IM1       H1              3.8928391504      -12.9811377440       19.7009119989  IM1       312             0.0000000000
     12299       582  IM1       H2              3.3751607081      -14.1494545809       18.3978637084  IM1       312             0.0000000000
     12300       582  IM1       H3              2.9012360634      -14.4408104144       20.1328096733  IM1       312             0.0000000000
     12301       582  IM1       N1              1.8812251423      -12.9342881876       19.1513023741  IM1       312             0.0000000000
     12302       582  IM1       DN1             1.9054736257      -12.9561875915       19.1540352865  IM1       312             0.0000000000
     12303       582  IM1       C2              1.7228674842      -11.5866026571       19.3615179099  IM1       312             0.0000000000
     12304       582  IM1       DC2             1.7579679009      -11.6210107485       19.3608592450  IM1       312             0.0000000000
     12305       582  IM1       H4              2.5002507405      -10.9216823862       19.7171094008  IM1       312             0.0000000000
     12306       582  IM1       C3              0.4287879979      -11.3044994752       19.0384592233  IM1       312             0.0000000000
     12307       582  IM1       DC3             0.4527713485      -11.3036404218       19.0444581239  IM1       312             0.0000000000
     12308       582  IM1       H5             -0.1045111808      -10.3621440459       19.0596070760  IM1       312             0.0000000000
     12309       582  IM1       C4              0.6970076125      -13.4267304515       18.7108737250  IM1       312             0.0000000000
     12310       582  IM1       DC4             0.7258534373      -13.4176848803       18.7161383453  IM1       312             0.0000000000
     12311       582  IM1       H6              0.5245199197      -14.4783503071       18.4818678840  IM1       312             0.0000000000
     12312       582  IM1       N2             -0.2089831280      -12.4572653831       18.6225062363  IM1       312             0.0000000000
     12313       582  IM1       DN2            -0.1932388118      -12.4501939897       18.6242018066  IM1       312             0.0000000000
     12314       582  IM1       H7             -1.1617583237      -12.5512227711       18.3337304796  IM1       312             0.0000000000
     12315       582  IM1       LPN21          -0.4923443036      -12.4909628479       18.5299269457  IM1       312             0.0000000000
     12316       583  IM1       C1             -3.2879626697        0.1860907419      -19.8503333449  IM1       313             0.0000000000
     12317       583  IM1       DC1            -3.2507806034        0.2101503916      -19.8558288512  IM1       313             0.0000000000
     12318       583  IM1       H1             -3.7630979822        1.0320172978      -19.3090610482  IM1       313             0.0000000000
     12319       583  IM1       H2             -3.5421212427       -0.7666362796      -19.3384391728  IM1       313             0.0000000000
     12320       583  IM1       H3             -3.6770147816        0.1581661145      -20.8906119947  IM1       313             0.0000000000
     12321       583  IM1       N1             -1.8621311658        0.3379586982      -19.8875206118  IM1       313             0.0000000000
     12322       583  IM1       DN1            -1.8356466834        0.3402647905      -19.9001221458  IM1       313             0.0000000000
     12323       583  IM1       C2             -1.1590145089        1.4162291816      -19.4049624860  IM1       313             0.0000000000
     12324       583  IM1       DC2            -1.1705730494        1.4216491375      -19.4316453036  IM1       313             0.0000000000
     12325       583  IM1       H4             -1.5792897083        2.1691792361      -18.7497343027  IM1       313             0.0000000000
     12326       583  IM1       C3              0.1180275219        1.2667797975      -19.8462818995  IM1       313             0.0000000000
     12327       583  IM1       DC3             0.1164910205        1.2631263193      -19.8676770495  IM1       313             0.0000000000
     12328       583  IM1       H5              0.9907749492        1.8766982780      -19.6482910535  IM1       313             0.0000000000
     12329       583  IM1       C4             -0.9952783634       -0.4353981441      -20.5889960036  IM1       313             0.0000000000
     12330       583  IM1       DC4            -0.9984084240       -0.4231846598      -20.6100611969  IM1       313             0.0000000000
     12331       583  IM1       H6             -1.2677529004       -1.3992072432      -21.0190304759  IM1       313             0.0000000000
     12332       583  IM1       N2              0.2190829984        0.1155080910      -20.6087244864  IM1       313             0.0000000000
     12333       583  IM1       DN2             0.2239243771        0.1217383136      -20.6272363274  IM1       313             0.0000000000
     12334       583  IM1       H7              1.0533153184       -0.2813493134      -20.9915568737  IM1       313             0.0000000000
     12335       583  IM1       LPN21           0.4591021770        0.0059081620      -20.7514782936  IM1       313             0.0000000000
     12336       584  IM1       C1            -13.0436653245      -20.4630371167       21.8771538092  IM1       314             0.0000000000
     12337       584  IM1       DC1           -13.0492012154      -20.4552751440       21.8705915937  IM1       314             0.0000000000
     12338       584  IM1       H1            -14.0269275335      -20.6645201445       21.4007915308  IM1       314             0.0000000000
     12339       584  IM1       H2            -13.0565835149      -20.8408760361       22.9218508333  IM1       314             0.0000000000
     12340       584  IM1       H3            -12.2375650656      -20.9648465523       21.3003430406  IM1       314             0.0000000000
     12341       584  IM1       N1            -12.7758645533      -19.0579517293       21.8959237952  IM1       314             0.0000000000
     12342       584  IM1       DN1           -12.7908423553      -19.0471488212       21.8868762691  IM1       314             0.0000000000
     12343       584  IM1       C2            -13.4414787170      -18.0870008827       21.1836074924  IM1       314             0.0000000000
     12344       584  IM1       DC2           -13.4615133335      -18.0967448872       21.1715345921  IM1       314             0.0000000000
     12345       584  IM1       H4            -14.3441918667      -18.2738536312       20.6152026896  IM1       314             0.0000000000
     12346       584  IM1       C3            -12.7923627098      -16.9182270889       21.4408100186  IM1       314             0.0000000000
     12347       584  IM1       DC3           -12.8184671918      -16.9231757532       21.4423442907  IM1       314             0.0000000000
     12348       584  IM1       H5            -13.0080192671      -15.9105258731       21.1077642126  IM1       314             0.0000000000
     12349       584  IM1       C4            -11.7596588050      -18.4583485060       22.5544295740  IM1       314             0.0000000000
     12350       584  IM1       DC4           -11.7891162450      -18.4610369596       22.5347437900  IM1       314             0.0000000000
     12351       584  IM1       H6            -11.0452845944      -19.0100744043       23.1654680523  IM1       314             0.0000000000
     12352       584  IM1       N2            -11.7518924522      -17.1480974893       22.3153308726  IM1       314             0.0000000000
     12353       584  IM1       DN2           -11.7604841824      -17.1408328715       22.3055097359  IM1       314             0.0000000000
     12354       584  IM1       H7            -11.1081662470      -16.4758419205       22.6809659680  IM1       314             0.0000000000
     12355       584  IM1       LPN21         -11.5594077300      -16.9497733343       22.4320234658  IM1       314             0.0000000000
     12356       585  IM1       C1              4.7895723791       27.2502533195       -8.0317429512  IM1       315             0.0000000000
     12357       585  IM1       DC1             4.8137567331       27.2388855605       -8.0571660409  IM1       315             0.0000000000
     12358       585  IM1       H1              3.6792040501       27.2596155480       -7.9954728106  IM1       315             0.0000000000
     12359       585  IM1       H2              5.1460163229       28.1353553428       -8.6008326834  IM1       315             0.0000000000
     12360       585  IM1       H3              5.1809564438       27.2759202735       -6.9922812045  IM1       315             0.0000000000
     12361       585  IM1       N1              5.2547395948       26.0556729470       -8.6724784555  IM1       315             0.0000000000
     12362       585  IM1       DN1             5.2664555898       26.0306451374       -8.6890869574  IM1       315             0.0000000000
     12363       585  IM1       C2              4.4720408176       25.0417936480       -9.1810203273  IM1       315             0.0000000000
     12364       585  IM1       DC2             4.4992380359       25.0278845860       -9.2075188586  IM1       315             0.0000000000
     12365       585  IM1       H4              3.3906678171       25.0734675099       -9.1308386389  IM1       315             0.0000000000
     12366       585  IM1       C3              5.3351019216       24.0958670911       -9.6457170129  IM1       315             0.0000000000
     12367       585  IM1       DC3             5.3537303212       24.0670623182       -9.6630904291  IM1       315             0.0000000000
     12368       585  IM1       H5              5.1324800729       23.1490053432      -10.1307801189  IM1       315             0.0000000000
     12369       585  IM1       C4              6.5509865190       25.7010626332       -8.8459116449  IM1       315             0.0000000000
     12370       585  IM1       DC4             6.5499983143       25.6920727982       -8.8452589095  IM1       315             0.0000000000
     12371       585  IM1       H6              7.3816685768       26.3458289715       -8.5589557435  IM1       315             0.0000000000
     12372       585  IM1       N2              6.6421164233       24.5043545707       -9.4352336132  IM1       315             0.0000000000
     12373       585  IM1       DN2             6.6573792623       24.4891594410       -9.4356107104  IM1       315             0.0000000000
     12374       585  IM1       H7              7.4809417116       24.0297465129       -9.7019156843  IM1       315             0.0000000000
     12375       585  IM1       LPN21           6.8964869093       24.3610055722       -9.5041300605  IM1       315             0.0000000000
     12376       586  IM1       C1             18.4784187772      -27.8315922305       23.5861369400  IM1       316             0.0000000000
     12377       586  IM1       DC1            18.4707295433      -27.8420264113       23.5657480734  IM1       316             0.0000000000
     12378       586  IM1       H1             19.1946932357      -26.9825860257       23.6075930334  IM1       316             0.0000000000
     12379       586  IM1       H2             18.9699765051      -28.7376557857       24.0005531975  IM1       316             0.0000000000
     12380       586  IM1       H3             17.5838313999      -27.5721000070       24.1916930566  IM1       316             0.0000000000
     12381       586  IM1       N1             18.0721698140      -28.0972037900       22.2415753501  IM1       316             0.0000000000
     12382       586  IM1       DN1            18.0463570562      -28.1132439048       22.2349803699  IM1       316             0.0000000000
     12383       586  IM1       C2             18.5045733371      -27.4632122152       21.0958319902  IM1       316             0.0000000000
     12384       586  IM1       DC2            18.4937529263      -27.4776067773       21.1204543705  IM1       316             0.0000000000
     12385       586  IM1       H4             19.2382947462      -26.6666341551       21.0935324292  IM1       316             0.0000000000
     12386       586  IM1       C3             17.8686393462      -28.0812340831       20.0603598790  IM1       316             0.0000000000
     12387       586  IM1       DC3            17.8709405419      -28.0750907144       20.0711897127  IM1       316             0.0000000000
     12388       586  IM1       H5             17.9600770646      -27.9411102220       18.9903629411  IM1       316             0.0000000000
     12389       586  IM1       C4             17.2036578124      -29.0639901611       21.8744449248  IM1       316             0.0000000000
     12390       586  IM1       DC4            17.1865097788      -29.0619786326       21.8892019032  IM1       316             0.0000000000
     12391       586  IM1       H6             16.7401607499      -29.7605255749       22.5730928263  IM1       316             0.0000000000
     12392       586  IM1       N2             17.0404781895      -29.0715809787       20.5601711759  IM1       316             0.0000000000
     12393       586  IM1       DN2            17.0343805632      -29.0618628551       20.5805784368  IM1       316             0.0000000000
     12394       586  IM1       H7             16.4956193777      -29.7216349740       20.0304932753  IM1       316             0.0000000000
     12395       586  IM1       LPN21          16.8574939562      -29.2557904808       20.4098926688  IM1       316             0.0000000000
     12396       587  IM1       C1             12.9739027895      -24.3589337924      -17.2005569562  IM1       317             0.0000000000
     12397       587  IM1       DC1            12.9524051851      -24.3814096641      -17.1724513280  IM1       317             0.0000000000
     12398       587  IM1       H1             13.5460765417      -25.1950190295      -16.7445967884  IM1       317             0.0000000000
     12399       587  IM1       H2             11.9257059617      -24.6717229049      -17.3948952735  IM1       317             0.0000000000
     12400       587  IM1       H3             13.0083885718      -23.4723471514      -16.5319046857  IM1       317             0.0000000000
     12401       587  IM1       N1             13.5723851955      -23.9914149619      -18.4397490402  IM1       317             0.0000000000
     12402       587  IM1       DN1            13.5239448822      -23.9855830642      -18.4255200432  IM1       317             0.0000000000
     12403       587  IM1       C2             14.6726001864      -24.5694778737      -19.0125226236  IM1       317             0.0000000000
     12404       587  IM1       DC2            14.6137395644      -24.5766479983      -18.9745888011  IM1       317             0.0000000000
     12405       587  IM1       H4             15.2811976252      -25.3414105925      -18.5579700577  IM1       317             0.0000000000
     12406       587  IM1       C3             14.8594480335      -23.9253690742      -20.2016211002  IM1       317             0.0000000000
     12407       587  IM1       DC3            14.8015660019      -23.9449650990      -20.1859164534  IM1       317             0.0000000000
     12408       587  IM1       H5             15.6098914187      -24.0983649805      -20.9630645596  IM1       317             0.0000000000
     12409       587  IM1       C4             13.1128888312      -23.0445781168      -19.2894891280  IM1       317             0.0000000000
     12410       587  IM1       DC4            13.0947917971      -23.0523585628      -19.2904643014  IM1       317             0.0000000000
     12411       587  IM1       H6             12.2480169970      -22.4140397708      -19.0832899376  IM1       317             0.0000000000
     12412       587  IM1       N2             13.8408722982      -23.0045732703      -20.3972728711  IM1       317             0.0000000000
     12413       587  IM1       DN2            13.8056368867      -23.0019049322      -20.4150688678  IM1       317             0.0000000000
     12414       587  IM1       H7             13.7279025767      -22.3874446370      -21.1759834026  IM1       317             0.0000000000
     12415       587  IM1       LPN21          13.7878396606      -22.8293475221      -20.6349353975  IM1       317             0.0000000000
     12416       588  IM1       C1            -20.4521900056        0.2987395606       16.1621259308  IM1       318             0.0000000000
     12417       588  IM1       DC1           -20.4802297973        0.2963801048       16.1603179741  IM1       318             0.0000000000
     12418       588  IM1       H1            -21.0405506660        1.2406431542       16.1309754305  IM1       318             0.0000000000
     12419       588  IM1       H2            -20.7183782739       -0.2719539133       17.0774257543  IM1       318             0.0000000000
     12420       588  IM1       H3            -20.6537737218       -0.3080429645       15.2535556401  IM1       318             0.0000000000
     12421       588  IM1       N1            -19.0565650538        0.6014583231       16.2125929835  IM1       318             0.0000000000
     12422       588  IM1       DN1           -19.0768042381        0.5814271905       16.2097425039  IM1       318             0.0000000000
     12423       588  IM1       C2            -18.4819017069        1.8490742281       16.1747726568  IM1       318             0.0000000000
     12424       588  IM1       DC2           -18.5164984960        1.8249053285       16.1640033325  IM1       318             0.0000000000
     12425       588  IM1       H4            -19.0419979850        2.7739651139       16.1134700583  IM1       318             0.0000000000
     12426       588  IM1       C3            -17.1455513863        1.6618881275       16.3323798921  IM1       318             0.0000000000
     12427       588  IM1       DC3           -17.1679426034        1.6579514524       16.3256226130  IM1       318             0.0000000000
     12428       588  IM1       H5            -16.3404419439        2.3845294927       16.3821518153  IM1       318             0.0000000000
     12429       588  IM1       C4            -18.0644521599       -0.2993277123       16.3715192190  IM1       318             0.0000000000
     12430       588  IM1       DC4           -18.0852385234       -0.2912794471       16.3757887893  IM1       318             0.0000000000
     12431       588  IM1       H6            -18.2293745231       -1.3765487470       16.3937780926  IM1       318             0.0000000000
     12432       588  IM1       N2            -16.8859555230        0.3099665747       16.4556358637  IM1       318             0.0000000000
     12433       588  IM1       DN2           -16.8958336306        0.3093611436       16.4577131535  IM1       318             0.0000000000
     12434       588  IM1       H7            -15.9914064637       -0.1259256161       16.5545296374  IM1       318             0.0000000000
     12435       588  IM1       LPN21         -16.6215839181        0.1733868343       16.4937623515  IM1       318             0.0000000000
     12436       589  IM1       C1              1.8095620279      -21.2659532971       -5.4746880343  IM1       319             0.0000000000
     12437       589  IM1       DC1             1.8341890043      -21.2974344517       -5.4820810597  IM1       319             0.0000000000
     12438       589  IM1       H1              2.6823783858      -21.2714670816       -6.1620614438  IM1       319             0.0000000000
     12439       589  IM1       H2              0.8881474158      -21.4950582768       -6.0515996574  IM1       319             0.0000000000
     12440       589  IM1       H3              1.9521099814      -22.0030957214       -4.6557728194  IM1       319             0.0000000000
     12441       589  IM1       N1              1.6637125216      -19.9637935984       -4.9013530474  IM1       319             0.0000000000
     12442       589  IM1       DN1             1.6587742959      -19.9992511726       -4.8815563504  IM1       319             0.0000000000
     12443       589  IM1       C2              2.4563949690      -18.8671436560       -5.1551686818  IM1       319             0.0000000000
     12444       589  IM1       DC2             2.4890438549      -18.9200855744       -5.1189683390  IM1       319             0.0000000000
     12445       589  IM1       H4              3.2294917021      -18.8512444342       -5.9134283049  IM1       319             0.0000000000
     12446       589  IM1       C3              1.8729932274      -17.8270707373       -4.4886780865  IM1       319             0.0000000000
     12447       589  IM1       DC3             1.9098404027      -17.8569568362       -4.4560111931  IM1       319             0.0000000000
     12448       589  IM1       H5              2.1095208911      -16.7704068332       -4.5088041389  IM1       319             0.0000000000
     12449       589  IM1       C4              0.6720129509      -19.5732883864       -4.0647030325  IM1       319             0.0000000000
     12450       589  IM1       DC4             0.6771230775      -19.5889292848       -4.0608219057  IM1       319             0.0000000000
     12451       589  IM1       H6             -0.1264922188      -20.2371293179       -3.7333350927  IM1       319             0.0000000000
     12452       589  IM1       N2              0.7936754940      -18.2895030575       -3.7474202390  IM1       319             0.0000000000
     12453       589  IM1       DN2             0.7998949808      -18.3003581660       -3.7270344529  IM1       319             0.0000000000
     12454       589  IM1       H7              0.1599482918      -17.7449286825       -3.1980309569  IM1       319             0.0000000000
     12455       589  IM1       LPN21           0.6191993865      -18.1399273054       -3.5545856407  IM1       319             0.0000000000
     12456       590  IM1       C1            -25.0139644767       16.1839776857      -26.1456570312  IM1       320             0.0000000000
     12457       590  IM1       DC1           -25.0031629225       16.2064707424      -26.1391045723  IM1       320             0.0000000000
     12458       590  IM1       H1            -23.9839641217       15.7722996767      -26.2084382949  IM1       320             0.0000000000
     12459       590  IM1       H2            -25.6478219658       15.7795620626      -26.9635773742  IM1       320             0.0000000000
     12460       590  IM1       H3            -25.4399966218       15.8969341826      -25.1605562037  IM1       320             0.0000000000
     12461       590  IM1       N1            -24.9639843169       17.6040992297      -26.2589960021  IM1       320             0.0000000000
     12462       590  IM1       DN1           -24.9681763938       17.6231762489      -26.2482585894  IM1       320             0.0000000000
     12463       590  IM1       C2            -23.8308835099       18.3668514059      -26.4221852915  IM1       320             0.0000000000
     12464       590  IM1       DC2           -23.8433522819       18.3651686925      -26.4090570365  IM1       320             0.0000000000
     12465       590  IM1       H4            -22.8460016608       17.9495061686      -26.5916541573  IM1       320             0.0000000000
     12466       590  IM1       C3            -24.2401019562       19.6630327068      -26.3612736186  IM1       320             0.0000000000
     12467       590  IM1       DC3           -24.2480516262       19.6840947945      -26.3640322482  IM1       320             0.0000000000
     12468       590  IM1       H5            -23.6617542738       20.5748522769      -26.4448680557  IM1       320             0.0000000000
     12469       590  IM1       C4            -26.0117573650       18.4463305616      -26.1101022705  IM1       320             0.0000000000
     12470       590  IM1       DC4           -26.0091599471       18.4476854759      -26.0987241904  IM1       320             0.0000000000
     12471       590  IM1       H6            -27.0391803782       18.0982190582      -26.0037052166  IM1       320             0.0000000000
     12472       590  IM1       N2            -25.6100258189       19.7167053849      -26.1637746456  IM1       320             0.0000000000
     12473       590  IM1       DN2           -25.6162664387       19.7280857195      -26.1659409583  IM1       320             0.0000000000
     12474       590  IM1       H7            -26.1851089867       20.5311006566      -26.0860591874  IM1       320             0.0000000000
     12475       590  IM1       LPN21         -25.7864694518       19.9579120260      -26.1375639472  IM1       320             0.0000000000
     12476       591  IM1       C1             20.7383273170      -18.0013930008       13.4068048025  IM1       321             0.0000000000
     12477       591  IM1       DC1            20.7325913340      -17.9938179806       13.4118858627  IM1       321             0.0000000000
     12478       591  IM1       H1             20.2788744898      -17.3880744712       12.6024016195  IM1       321             0.0000000000
     12479       591  IM1       H2             20.6943940267      -17.4425784139       14.3660321608  IM1       321             0.0000000000
     12480       591  IM1       H3             20.1967891987      -18.9678002710       13.4911520317  IM1       321             0.0000000000
     12481       591  IM1       N1             22.1122682132      -18.2599923560       13.1104330243  IM1       321             0.0000000000
     12482       591  IM1       DN1            22.1046909959      -18.2714253801       13.1366843524  IM1       321             0.0000000000
     12483       591  IM1       C2             22.8353475165      -17.7586770777       12.0532435646  IM1       321             0.0000000000
     12484       591  IM1       DC2            22.8028998547      -17.7715142491       12.0864231613  IM1       321             0.0000000000
     12485       591  IM1       H4             22.4232916807      -17.1408243126       11.2649815848  IM1       321             0.0000000000
     12486       591  IM1       C3             24.1079652033      -18.2170304624       12.2128579597  IM1       321             0.0000000000
     12487       591  IM1       DC3            24.0831893405      -18.2242218320       12.2237105847  IM1       321             0.0000000000
     12488       591  IM1       H5             24.9843087087      -18.0525828352       11.5981482409  IM1       321             0.0000000000
     12489       591  IM1       C4             22.9524185241      -18.9988606823       13.8728239480  IM1       321             0.0000000000
     12490       591  IM1       DC4            22.9414586769      -18.9979416248       13.8845326392  IM1       321             0.0000000000
     12491       591  IM1       H6             22.6422221081      -19.5232429013       14.7766499666  IM1       321             0.0000000000
     12492       591  IM1       N2             24.1761242211      -18.9996186985       13.3580659074  IM1       321             0.0000000000
     12493       591  IM1       DN2            24.1673364046      -19.0022533364       13.3671492697  IM1       321             0.0000000000
     12494       591  IM1       H7             24.9802678806      -19.4740929645       13.7161540889  IM1       321             0.0000000000
     12495       591  IM1       LPN21          24.4128333732      -19.1431875338       13.4736373868  IM1       321             0.0000000000
     12496       592  IM1       C1             10.9010901809      -21.7009552710       22.4200524270  IM1       322             0.0000000000
     12497       592  IM1       DC1            10.9207442443      -21.7210722042       22.4303549466  IM1       322             0.0000000000
     12498       592  IM1       H1             11.2547631952      -22.5156605985       21.7526008340  IM1       322             0.0000000000
     12499       592  IM1       H2             11.6335867303      -21.5284926794       23.2373812834  IM1       322             0.0000000000
     12500       592  IM1       H3             10.7685843452      -20.7667556537       21.8335080719  IM1       322             0.0000000000
     12501       592  IM1       N1              9.6419083533      -22.0594786996       22.9882973644  IM1       322             0.0000000000
     12502       592  IM1       DN1             9.6536305852      -22.0435843806       22.9959388169  IM1       322             0.0000000000
     12503       592  IM1       C2              9.0914934998      -23.3235704117       23.0324253064  IM1       322             0.0000000000
     12504       592  IM1       DC2             9.1438901864      -23.3082234828       23.0278292258  IM1       322             0.0000000000
     12505       592  IM1       H4              9.4262110419      -24.1661170918       22.4399995652  IM1       322             0.0000000000
     12506       592  IM1       C3              7.9852245292      -23.2261276768       23.8260904911  IM1       322             0.0000000000
     12507       592  IM1       DC3             8.0549962869      -23.2117581422       23.8559067633  IM1       322             0.0000000000
     12508       592  IM1       H5              7.2246257825      -23.9576907121       24.0693888101  IM1       322             0.0000000000
     12509       592  IM1       C4              8.8934550397      -21.2511503041       23.7742426994  IM1       322             0.0000000000
     12510       592  IM1       DC4             8.9149605727      -21.2546223776       23.7766155146  IM1       322             0.0000000000
     12511       592  IM1       H6              9.1186054270      -20.1994998896       23.9515523406  IM1       322             0.0000000000
     12512       592  IM1       N2              7.8973280955      -21.9330111342       24.3310133936  IM1       322             0.0000000000
     12513       592  IM1       DN2             7.9244504204      -21.9393016000       24.3618050035  IM1       322             0.0000000000
     12514       592  IM1       H7              7.2004348229      -21.5686629077       24.9487432198  IM1       322             0.0000000000
     12515       592  IM1       LPN21           7.6985489517      -21.8208642155       24.5257180946  IM1       322             0.0000000000
     12516       593  IM1       C1             15.1536415687        7.4354561068       22.0102487204  IM1       323             0.0000000000
     12517       593  IM1       DC1            15.1226596116        7.4163157769       22.0130774730  IM1       323             0.0000000000
     12518       593  IM1       H1             14.1633121614        7.0254951006       22.3026536436  IM1       323             0.0000000000
     12519       593  IM1       H2             15.9231738129        7.1254186200       22.7491789485  IM1       323             0.0000000000
     12520       593  IM1       H3             15.4349325162        7.0748064576       20.9977625551  IM1       323             0.0000000000
     12521       593  IM1       N1             15.1084303988        8.8652761343       21.9868014599  IM1       323             0.0000000000
     12522       593  IM1       DN1            15.1046345687        8.8541208575       21.9918306397  IM1       323             0.0000000000
     12523       593  IM1       C2             13.9860466645        9.6513263282       22.1422016402  IM1       323             0.0000000000
     12524       593  IM1       DC2            13.9767226984        9.6127353110       22.1478014642  IM1       323             0.0000000000
     12525       593  IM1       H4             12.9931300440        9.2802686377       22.3642867051  IM1       323             0.0000000000
     12526       593  IM1       C3             14.4018405299       10.9349411688       21.9427110748  IM1       323             0.0000000000
     12527       593  IM1       DC3            14.3954226084       10.9107481300       21.9453970640  IM1       323             0.0000000000
     12528       593  IM1       H5             13.8375804664       11.8593064137       21.9496734770  IM1       323             0.0000000000
     12529       593  IM1       C4             16.1539804195        9.6834243183       21.7089460724  IM1       323             0.0000000000
     12530       593  IM1       DC4            16.1338088596        9.6727683257       21.7183519319  IM1       323             0.0000000000
     12531       593  IM1       H6             17.1645959492        9.3239435966       21.5152198176  IM1       323             0.0000000000
     12532       593  IM1       N2             15.7608792418       10.9546812223       21.6787026728  IM1       323             0.0000000000
     12533       593  IM1       DN2            15.7538803632       10.9567429400       21.6844927762  IM1       323             0.0000000000
     12534       593  IM1       H7             16.3273882863       11.7505784728       21.4651258268  IM1       323             0.0000000000
     12535       593  IM1       LPN21          15.9377250011       11.1909525624       21.6248377372  IM1       323             0.0000000000
     12536       594  IM1       C1             -0.5148442352       15.0561204570        3.2130486387  IM1       324             0.0000000000
     12537       594  IM1       DC1            -0.4989725518       15.0825656245        3.2092988518  IM1       324             0.0000000000
     12538       594  IM1       H1             -0.4707202909       15.9687826199        2.5810503358  IM1       324             0.0000000000
     12539       594  IM1       H2             -1.5148280447       14.5809767248        3.1203565973  IM1       324             0.0000000000
     12540       594  IM1       H3              0.2846270243       14.3454456425        2.9128686666  IM1       324             0.0000000000
     12541       594  IM1       N1             -0.2788680963       15.3809030613        4.5676972480  IM1       324             0.0000000000
     12542       594  IM1       DN1            -0.2688438521       15.3980155973        4.5721984392  IM1       324             0.0000000000
     12543       594  IM1       C2              0.1959576135       16.5929512722        5.0059812051  IM1       324             0.0000000000
     12544       594  IM1       DC2             0.1765033856       16.6105625047        4.9956231668  IM1       324             0.0000000000
     12545       594  IM1       H4              0.3782580293       17.4440175244        4.3615110407  IM1       324             0.0000000000
     12546       594  IM1       C3              0.3923185307       16.4455092436        6.3370509000  IM1       324             0.0000000000
     12547       594  IM1       DC3             0.3851202254       16.4709043593        6.3343437255  IM1       324             0.0000000000
     12548       594  IM1       H5              0.7489888130       17.1712402953        7.0574603324  IM1       324             0.0000000000
     12549       594  IM1       C4             -0.3376961008       14.5373321338        5.6272246161  IM1       324             0.0000000000
     12550       594  IM1       DC4            -0.3254457283       14.5604366651        5.6097616134  IM1       324             0.0000000000
     12551       594  IM1       H6             -0.6728960218       13.5021215634        5.5633490508  IM1       324             0.0000000000
     12552       594  IM1       N2              0.0602804743       15.1638274161        6.7294475153  IM1       324             0.0000000000
     12553       594  IM1       DN2             0.0685662721       15.1814731956        6.7213764343  IM1       324             0.0000000000
     12554       594  IM1       H7              0.0922217134       14.7813944829        7.6528785137  IM1       324             0.0000000000
     12555       594  IM1       LPN21           0.0723744703       15.0434354857        7.0039643971  IM1       324             0.0000000000
     12556       595  IM1       C1              7.0818365741       19.6965396923      -17.2059261234  IM1       325             0.0000000000
     12557       595  IM1       DC1             7.1067015769       19.7112090104      -17.2120599368  IM1       325             0.0000000000
     12558       595  IM1       H1              8.0709410520       20.1552955347      -16.9925335052  IM1       325             0.0000000000
     12559       595  IM1       H2              7.1696996616       18.5893652979      -17.2336017149  IM1       325             0.0000000000
     12560       595  IM1       H3              6.3590854891       19.9930946103      -16.4159849540  IM1       325             0.0000000000
     12561       595  IM1       N1              6.5953453514       20.1527072183      -18.4685115416  IM1       325             0.0000000000
     12562       595  IM1       DN1             6.6113098836       20.1586297637      -18.4741745582  IM1       325             0.0000000000
     12563       595  IM1       C2              7.3139476425       20.8783786687      -19.3937190763  IM1       325             0.0000000000
     12564       595  IM1       DC2             7.3248281401       20.8816540471      -19.3808645559  IM1       325             0.0000000000
     12565       595  IM1       H4              8.3334009915       21.2135502324      -19.2478976374  IM1       325             0.0000000000
     12566       595  IM1       C3              6.4650026315       21.1038888972      -20.4336493203  IM1       325             0.0000000000
     12567       595  IM1       DC3             6.4686108102       21.1038040918      -20.4408733490  IM1       325             0.0000000000
     12568       595  IM1       H5              6.6179563132       21.6495218846      -21.3565679593  IM1       325             0.0000000000
     12569       595  IM1       C4              5.3587163236       19.9369999883      -18.9789171576  IM1       325             0.0000000000
     12570       595  IM1       DC4             5.3938973547       19.9536163768      -18.9768456762  IM1       325             0.0000000000
     12571       595  IM1       H6              4.5966396615       19.3420717615      -18.4755290709  IM1       325             0.0000000000
     12572       595  IM1       N2              5.2526784557       20.4931421709      -20.1901333804  IM1       325             0.0000000000
     12573       595  IM1       DN2             5.2752684765       20.4884582490      -20.2093965178  IM1       325             0.0000000000
     12574       595  IM1       H7              4.4463021000       20.4733885881      -20.7812061077  IM1       325             0.0000000000
     12575       595  IM1       LPN21           5.0109451748       20.4831028546      -20.3675149832  IM1       325             0.0000000000
     12576       596  IM1       C1            -14.6283633286       16.9206623150       18.3878138957  IM1       326             0.0000000000
     12577       596  IM1       DC1           -14.6176361462       16.9387010857       18.3941375186  IM1       326             0.0000000000
     12578       596  IM1       H1            -13.9255121458       16.9251282165       19.2482215145  IM1       326             0.0000000000
     12579       596  IM1       H2            -15.6378293176       17.2317695435       18.7320691946  IM1       326             0.0000000000
     12580       596  IM1       H3            -14.2673186596       17.6033130437       17.5890925862  IM1       326             0.0000000000
     12581       596  IM1       N1            -14.7253732054       15.6011578438       17.8540059366  IM1       326             0.0000000000
     12582       596  IM1       DN1           -14.7473711685       15.6368765051       17.8288427432  IM1       326             0.0000000000
     12583       596  IM1       C2            -14.1656995448       14.4554515514       18.3679862411  IM1       326             0.0000000000
     12584       596  IM1       DC2           -14.1879931844       14.5259225624       18.3433730839  IM1       326             0.0000000000
     12585       596  IM1       H4            -13.4422518676       14.4011508555       19.1720782089  IM1       326             0.0000000000
     12586       596  IM1       C3            -14.7118987334       13.4241869222       17.6627485335  IM1       326             0.0000000000
     12587       596  IM1       DC3           -14.7268815382       13.4709343028       17.6419880964  IM1       326             0.0000000000
     12588       596  IM1       H5            -14.5047385987       12.3628289918       17.7218503285  IM1       326             0.0000000000
     12589       596  IM1       C4            -15.5799103085       15.2451259784       16.8670730240  IM1       326             0.0000000000
     12590       596  IM1       DC4           -15.5878156970       15.2534867889       16.8537652677  IM1       326             0.0000000000
     12591       596  IM1       H6            -16.1540885290       15.9631535932       16.2815341991  IM1       326             0.0000000000
     12592       596  IM1       N2            -15.6118885253       13.9309097979       16.7203699962  IM1       326             0.0000000000
     12593       596  IM1       DN2           -15.6377110002       13.9432505409       16.6963829459  IM1       326             0.0000000000
     12594       596  IM1       H7            -16.1179721888       13.4089399565       16.0337647164  IM1       326             0.0000000000
     12595       596  IM1       LPN21         -15.7818501255       13.7837106974       16.5217611362  IM1       326             0.0000000000
     12596       597  IM1       C1            -15.5841453544       17.1875018551      -28.6240286886  IM1       327             0.0000000000
     12597       597  IM1       DC1           -15.6137915212       17.1807488068      -28.6151831714  IM1       327             0.0000000000
     12598       597  IM1       H1            -15.2324713199       16.3072871144      -28.0444871585  IM1       327             0.0000000000
     12599       597  IM1       H2            -15.1649708468       18.1174669549      -28.1838257294  IM1       327             0.0000000000
     12600       597  IM1       H3            -15.2149042985       17.0509078222      -29.6629339370  IM1       327             0.0000000000
     12601       597  IM1       N1            -17.0234763216       17.2559865608      -28.6205722381  IM1       327             0.0000000000
     12602       597  IM1       DN1           -17.0523362855       17.2661962080      -28.6173672527  IM1       327             0.0000000000
     12603       597  IM1       C2            -17.8638274582       16.1931309534      -28.3741691517  IM1       327             0.0000000000
     12604       597  IM1       DC2           -17.8640288300       16.2025062544      -28.3715645029  IM1       327             0.0000000000
     12605       597  IM1       H4            -17.5075009328       15.2190560832      -28.0625627418  IM1       327             0.0000000000
     12606       597  IM1       C3            -19.1274826258       16.6504824116      -28.5846900720  IM1       327             0.0000000000
     12607       597  IM1       DC3           -19.1415447214       16.6594095808      -28.5796624828  IM1       327             0.0000000000
     12608       597  IM1       H5            -20.0757059439       16.1350552762      -28.4947100344  IM1       327             0.0000000000
     12609       597  IM1       C4            -17.7989936747       18.3131034934      -28.9762840001  IM1       327             0.0000000000
     12610       597  IM1       DC4           -17.8046328541       18.3173839316      -28.9642063721  IM1       327             0.0000000000
     12611       597  IM1       H6            -17.4026271476       19.2884266011      -29.2586639070  IM1       327             0.0000000000
     12612       597  IM1       N2            -19.0892157184       17.9844860083      -28.9522871771  IM1       327             0.0000000000
     12613       597  IM1       DN2           -19.0961003030       17.9895248687      -28.9440550606  IM1       327             0.0000000000
     12614       597  IM1       H7            -19.8618887209       18.5688215280      -29.2003364294  IM1       327             0.0000000000
     12615       597  IM1       LPN21         -19.3179153529       18.1682099963      -29.0150723136  IM1       327             0.0000000000
     12616       598  IM1       C1             -9.4115440426        3.8765830450      -29.1851312284  IM1       328             0.0000000000
     12617       598  IM1       DC1            -9.3873309135        3.8499902008      -29.1677584793  IM1       328             0.0000000000
     12618       598  IM1       H1             -9.6452346231        3.0096611696      -28.5307947901  IM1       328             0.0000000000
     12619       598  IM1       H2             -8.3544597861        3.8269740818      -29.5234104426  IM1       328             0.0000000000
     12620       598  IM1       H3            -10.0922284200        3.8605579884      -30.0630452199  IM1       328             0.0000000000
     12621       598  IM1       N1             -9.6174777046        5.1082816201      -28.4720225695  IM1       328             0.0000000000
     12622       598  IM1       DN1            -9.6126607747        5.0747719741      -28.4569461802  IM1       328             0.0000000000
     12623       598  IM1       C2             -9.9520593578        5.2319784663      -27.1353284294  IM1       328             0.0000000000
     12624       598  IM1       DC2            -9.9369480705        5.1911942414      -27.1332187843  IM1       328             0.0000000000
     12625       598  IM1       H4            -10.2047689077        4.3979747678      -26.4923162101  IM1       328             0.0000000000
     12626       598  IM1       C3            -10.0508375310        6.5625733593      -26.8899385625  IM1       328             0.0000000000
     12627       598  IM1       DC3           -10.0601347620        6.5223096884      -26.8703350102  IM1       328             0.0000000000
     12628       598  IM1       H5            -10.3500352625        7.0929554038      -25.9943579663  IM1       328             0.0000000000
     12629       598  IM1       C4             -9.5161230609        6.3559932576      -28.9848009333  IM1       328             0.0000000000
     12630       598  IM1       DC4            -9.5158192319        6.2956671047      -28.9406057160  IM1       328             0.0000000000
     12631       598  IM1       H6             -9.2786079201        6.5777230494      -30.0252443279  IM1       328             0.0000000000
     12632       598  IM1       N2             -9.7704350236        7.2603146458      -28.0378065437  IM1       328             0.0000000000
     12633       598  IM1       DN2            -9.7729220839        7.2225616045      -28.0049065317  IM1       328             0.0000000000
     12634       598  IM1       H7             -9.7879163952        8.2525500013      -28.1609463131  IM1       328             0.0000000000
     12635       598  IM1       LPN21          -9.7655750549        7.5579385259      -28.0751750691  IM1       328             0.0000000000
     12636       599  IM1       C1             -9.3738321095        7.1717798861       14.1648707162  IM1       329             0.0000000000
     12637       599  IM1       DC1            -9.3491493214        7.1819558091       14.1690799547  IM1       329             0.0000000000
     12638       599  IM1       H1            -10.0422008119        8.0402609419       13.9822647626  IM1       329             0.0000000000
     12639       599  IM1       H2             -8.9625467211        7.2089170555       15.1962708131  IM1       329             0.0000000000
     12640       599  IM1       H3             -9.9480773758        6.2330451238       14.0120949915  IM1       329             0.0000000000
     12641       599  IM1       N1             -8.2917388544        7.1819038412       13.2519474149  IM1       329             0.0000000000
     12642       599  IM1       DN1            -8.2661200243        7.1637498525       13.2644141172  IM1       329             0.0000000000
     12643       599  IM1       C2             -8.1082238827        8.0827664069       12.2348970649  IM1       329             0.0000000000
     12644       599  IM1       DC2            -8.0704274448        8.0379813908       12.2768982189  IM1       329             0.0000000000
     12645       599  IM1       H4             -8.8266392314        8.8552073840       11.9897372726  IM1       329             0.0000000000
     12646       599  IM1       C3             -6.9433448693        7.7323862319       11.6295363061  IM1       329             0.0000000000
     12647       599  IM1       DC3            -6.8993134222        7.6963704046       11.6405391571  IM1       329             0.0000000000
     12648       599  IM1       H5             -6.4386025868        8.1708414444       10.7775496543  IM1       329             0.0000000000
     12649       599  IM1       C4             -7.2364410140        6.3332445627       13.2553686843  IM1       329             0.0000000000
     12650       599  IM1       DC4            -7.2226931797        6.3327794796       13.2477344696  IM1       329             0.0000000000
     12651       599  IM1       H6             -7.1714025532        5.4827199092       13.9339538391  IM1       329             0.0000000000
     12652       599  IM1       N2             -6.3830797235        6.6367400796       12.2766041746  IM1       329             0.0000000000
     12653       599  IM1       DN2            -6.3521478421        6.6219924470       12.2791093562  IM1       329             0.0000000000
     12654       599  IM1       H7             -5.5395993934        6.1531442265       12.0427752123  IM1       329             0.0000000000
     12655       599  IM1       LPN21          -6.1266943261        6.4930321380       12.2164830007  IM1       329             0.0000000000
     12656       600  IM1       C1             20.9302701767       11.4878851658      -22.0569111883  IM1       330             0.0000000000
     12657       600  IM1       DC1            20.9371696770       11.4808597124      -22.0426864031  IM1       330             0.0000000000
     12658       600  IM1       H1             20.5222883715       12.4318994342      -22.4772787739  IM1       330             0.0000000000
     12659       600  IM1       H2             20.1197156763       10.9601685088      -21.5102508428  IM1       330             0.0000000000
     12660       600  IM1       H3             21.3159101365       10.8532774203      -22.8832742021  IM1       330             0.0000000000
     12661       600  IM1       N1             21.9986521340       11.7846957165      -21.1499007158  IM1       330             0.0000000000
     12662       600  IM1       DN1            22.0061813296       11.7594850662      -21.1363368393  IM1       330             0.0000000000
     12663       600  IM1       C2             22.3422233484       13.0330108157      -20.6829811391  IM1       330             0.0000000000
     12664       600  IM1       DC2            22.3375746561       12.9895637680      -20.6720361053  IM1       330             0.0000000000
     12665       600  IM1       H4             21.9618381391       13.9551055306      -21.1048074414  IM1       330             0.0000000000
     12666       600  IM1       C3             23.3021888187       12.8279376883      -19.7372359919  IM1       330             0.0000000000
     12667       600  IM1       DC3            23.3058203562       12.8088052275      -19.7223997738  IM1       330             0.0000000000
     12668       600  IM1       H5             23.8998016051       13.5474661732      -19.1913177591  IM1       330             0.0000000000
     12669       600  IM1       C4             22.7458224969       10.8715552144      -20.4799784513  IM1       330             0.0000000000
     12670       600  IM1       DC4            22.7403569004       10.8594614601      -20.4721018626  IM1       330             0.0000000000
     12671       600  IM1       H6             22.6618190302        9.7974082119      -20.6450591424  IM1       330             0.0000000000
     12672       600  IM1       N2             23.5490212606       11.4679963605      -19.6021721387  IM1       330             0.0000000000
     12673       600  IM1       DN2            23.5540870152       11.4543488943      -19.5929977920  IM1       330             0.0000000000
     12674       600  IM1       H7             24.2165000043       11.0275080598      -19.0018037654  IM1       330             0.0000000000
     12675       600  IM1       LPN21          23.7403113202       11.3288481101      -19.4176568887  IM1       330             0.0000000000
     12676       601  IM1       C1            -14.3113845591       22.5088009762      -14.9181336249  IM1       331             0.0000000000
     12677       601  IM1       DC1           -14.3015935801       22.5323378647      -14.9084310671  IM1       331             0.0000000000
     12678       601  IM1       H1            -13.2762435823       22.4583078064      -14.5178155035  IM1       331             0.0000000000
     12679       601  IM1       H2            -14.2772455273       22.8104537362      -15.9868530169  IM1       331             0.0000000000
     12680       601  IM1       H3            -14.7910537989       21.5126345659      -14.8090882013  IM1       331             0.0000000000
     12681       601  IM1       N1            -15.0826584285       23.4688940256      -14.1853231432  IM1       331             0.0000000000
     12682       601  IM1       DN1           -15.0890416250       23.4880278961      -14.1788100403  IM1       331             0.0000000000
     12683       601  IM1       C2            -14.6186512776       24.1109334643      -13.0737501125  IM1       331             0.0000000000
     12684       601  IM1       DC2           -14.6304762959       24.1171858898      -13.0817910913  IM1       331             0.0000000000
     12685       601  IM1       H4            -13.5787772442       24.0280996957      -12.7827354027  IM1       331             0.0000000000
     12686       601  IM1       C3            -15.6731874343       24.7736875781      -12.5298408999  IM1       331             0.0000000000
     12687       601  IM1       DC3           -15.6844985135       24.7966391929      -12.5313379758  IM1       331             0.0000000000
     12688       601  IM1       H5            -15.7245578504       25.3821532118      -11.6354027226  IM1       331             0.0000000000
     12689       601  IM1       C4            -16.3936877271       23.7861544128      -14.3180864903  IM1       331             0.0000000000
     12690       601  IM1       DC4           -16.3801838601       23.8060607730      -14.3131897658  IM1       331             0.0000000000
     12691       601  IM1       H6            -17.0330328198       23.3622687813      -15.0924628999  IM1       331             0.0000000000
     12692       601  IM1       N2            -16.7847721934       24.6039815982      -13.3323672298  IM1       331             0.0000000000
     12693       601  IM1       DN2           -16.7893833923       24.6197992085      -13.3284279409  IM1       331             0.0000000000
     12694       601  IM1       H7            -17.7061842325       24.9589327626      -13.1742232272  IM1       331             0.0000000000
     12695       601  IM1       LPN21         -17.0585474367       24.7220331084      -13.2990362067  IM1       331             0.0000000000
     12696       602  IM1       C1            -18.5241544154        1.4615602788       22.1638312822  IM1       332             0.0000000000
     12697       602  IM1       DC1           -18.5336674266        1.4600696972       22.1952985437  IM1       332             0.0000000000
     12698       602  IM1       H1            -18.7068125104        2.5568630958       22.1282116166  IM1       332             0.0000000000
     12699       602  IM1       H2            -18.9589088488        1.0061747659       23.0792184229  IM1       332             0.0000000000
     12700       602  IM1       H3            -18.9322859859        0.9840828343       21.2474444025  IM1       332             0.0000000000
     12701       602  IM1       N1            -17.1439042573        1.2509604796       22.1868175921  IM1       332             0.0000000000
     12702       602  IM1       DN1           -17.1549534887        1.2580328161       22.1946764935  IM1       332             0.0000000000
     12703       602  IM1       C2            -16.1889338638        2.2354818667       22.2969919137  IM1       332             0.0000000000
     12704       602  IM1       DC2           -16.2157347387        2.2305865431       22.3156780551  IM1       332             0.0000000000
     12705       602  IM1       H4            -16.3854882792        3.2983692335       22.2297177927  IM1       332             0.0000000000
     12706       602  IM1       C3            -15.0108941227        1.5820311254       22.3751275178  IM1       332             0.0000000000
     12707       602  IM1       DC3           -15.0179879404        1.5989337320       22.3921281446  IM1       332             0.0000000000
     12708       602  IM1       H5            -13.9958050902        1.9567856009       22.4203197656  IM1       332             0.0000000000
     12709       602  IM1       C4            -16.5342309634        0.0491573736       22.2166805452  IM1       332             0.0000000000
     12710       602  IM1       DC4           -16.5519787569        0.0814518612       22.2123466013  IM1       332             0.0000000000
     12711       602  IM1       H6            -17.0449832980       -0.9109847433       22.1434742062  IM1       332             0.0000000000
     12712       602  IM1       N2            -15.2328905254        0.2184720718       22.3387943982  IM1       332             0.0000000000
     12713       602  IM1       DN2           -15.2435665562        0.2472589829       22.3420719224  IM1       332             0.0000000000
     12714       602  IM1       H7            -14.5446746479       -0.5069446143       22.3501758509  IM1       332             0.0000000000
     12715       602  IM1       LPN21         -15.0320593176       -0.0038162542       22.3547545383  IM1       332             0.0000000000
     12716       603  IM1       C1             -3.7331262449        7.6976563138      -16.1451769735  IM1       333             0.0000000000
     12717       603  IM1       DC1            -3.7329828541        7.6635655969      -16.1844096038  IM1       333             0.0000000000
     12718       603  IM1       H1             -3.3343335227        8.7284349080      -16.0321245325  IM1       333             0.0000000000
     12719       603  IM1       H2             -4.3344274939        7.4701094077      -15.2390973884  IM1       333             0.0000000000
     12720       603  IM1       H3             -4.3599084370        7.6407593137      -17.0607247962  IM1       333             0.0000000000
     12721       603  IM1       N1             -2.6411700488        6.7654734058      -16.2301724323  IM1       333             0.0000000000
     12722       603  IM1       DN1            -2.6451375659        6.7132284709      -16.2658606799  IM1       333             0.0000000000
     12723       603  IM1       C2             -1.3163212133        7.0883681871      -16.4044881657  IM1       333             0.0000000000
     12724       603  IM1       DC2            -1.3425413344        7.0363467711      -16.4461778821  IM1       333             0.0000000000
     12725       603  IM1       H4             -0.9656095308        8.1125733764      -16.3745875669  IM1       333             0.0000000000
     12726       603  IM1       C3             -0.6212616005        5.9219528148      -16.3188918589  IM1       333             0.0000000000
     12727       603  IM1       DC3            -0.6302813878        5.8809549366      -16.3609203333  IM1       333             0.0000000000
     12728       603  IM1       H5              0.4492493388        5.7609773203      -16.2875514863  IM1       333             0.0000000000
     12729       603  IM1       C4             -2.7136614751        5.4176489588      -16.1126995078  IM1       333             0.0000000000
     12730       603  IM1       DC4            -2.7222416369        5.3961638254      -16.1412634618  IM1       333             0.0000000000
     12731       603  IM1       H6             -3.6582188621        4.8828874357      -16.0129926570  IM1       333             0.0000000000
     12732       603  IM1       N2             -1.5033959102        4.8609560278      -16.1794560322  IM1       333             0.0000000000
     12733       603  IM1       DN2            -1.5139089993        4.8400786811      -16.1968557209  IM1       333             0.0000000000
     12734       603  IM1       H7             -1.2838016655        3.8878068325      -16.1104704441  IM1       333             0.0000000000
     12735       603  IM1       LPN21          -1.4438674290        4.5672179115      -16.1662545562  IM1       333             0.0000000000
     12736       604  IM1       C1              9.6371812148       20.1474975372       21.9544489870  IM1       334             0.0000000000
     12737       604  IM1       DC1             9.6677135875       20.1329794858       21.9800859671  IM1       334             0.0000000000
     12738       604  IM1       H1             10.7270101172       19.9749801591       22.0841861025  IM1       334             0.0000000000
     12739       604  IM1       H2              9.3687778761       21.1612158389       22.3214038253  IM1       334             0.0000000000
     12740       604  IM1       H3              9.3689811989       20.0660531693       20.8793877951  IM1       334             0.0000000000
     12741       604  IM1       N1              8.8891651709       19.1798758835       22.6972245449  IM1       334             0.0000000000
     12742       604  IM1       DN1             8.9126971530       19.1717386774       22.7066635083  IM1       334             0.0000000000
     12743       604  IM1       C2              9.4294886767       18.1489446794       23.4360250731  IM1       334             0.0000000000
     12744       604  IM1       DC2             9.4636190376       18.1696431862       23.4539795591  IM1       334             0.0000000000
     12745       604  IM1       H4             10.4810285793       17.8898583999       23.4308161296  IM1       334             0.0000000000
     12746       604  IM1       C3              8.3745277636       17.4951028199       23.9944500488  IM1       334             0.0000000000
     12747       604  IM1       DC3             8.4018396393       17.5013749528       24.0236674139  IM1       334             0.0000000000
     12748       604  IM1       H5              8.3414040881       16.6016677346       24.6056501556  IM1       334             0.0000000000
     12749       604  IM1       C4              7.5422176381       19.1287125062       22.8373094139  IM1       334             0.0000000000
     12750       604  IM1       DC4             7.5981080972       19.1182303613       22.8435386101  IM1       334             0.0000000000
     12751       604  IM1       H6              6.8508967010       19.8044290230       22.3337396066  IM1       334             0.0000000000
     12752       604  IM1       N2              7.1997843168       18.1184712343       23.6419673711  IM1       334             0.0000000000
     12753       604  IM1       DN2             7.2271101255       18.1065367366       23.6565343606  IM1       334             0.0000000000
     12754       604  IM1       H7              6.2670180715       17.8382375236       23.8687187744  IM1       334             0.0000000000
     12755       604  IM1       LPN21           6.9204812164       18.0472948771       23.7251761703  IM1       334             0.0000000000
     12756       605  IM1       C1             17.7824818561      -19.5701421932       27.6987587983  IM1       335             0.0000000000
     12757       605  IM1       DC1            17.7567519436      -19.5691903410       27.6890788102  IM1       335             0.0000000000
     12758       605  IM1       H1             16.7928234643      -20.0716719578       27.6407487624  IM1       335             0.0000000000
     12759       605  IM1       H2             18.4068342903      -20.0578483543       28.4776347439  IM1       335             0.0000000000
     12760       605  IM1       H3             18.2896508521      -19.6407332308       26.7127985988  IM1       335             0.0000000000
     12761       605  IM1       N1             17.6173399642      -18.1891397320       28.0428876700  IM1       335             0.0000000000
     12762       605  IM1       DN1            17.6211252075      -18.1852519956       28.0387657353  IM1       335             0.0000000000
     12763       605  IM1       C2             16.4176078288      -17.5227940843       28.1623347673  IM1       335             0.0000000000
     12764       605  IM1       DC2            16.4330880508      -17.5359830206       28.1541641840  IM1       335             0.0000000000
     12765       605  IM1       H4             15.4499809415      -18.0027560625       28.0834442898  IM1       335             0.0000000000
     12766       605  IM1       C3             16.7297456834      -16.2144675941       28.3738656575  IM1       335             0.0000000000
     12767       605  IM1       DC3            16.7269364968      -16.2155485403       28.3697213279  IM1       335             0.0000000000
     12768       605  IM1       H5             16.0819754526      -15.3522896767       28.4735249107  IM1       335             0.0000000000
     12769       605  IM1       C4             18.6108226944      -17.2793599175       28.1897135839  IM1       335             0.0000000000
     12770       605  IM1       DC4            18.5977673498      -17.2808710300       28.1819849781  IM1       335             0.0000000000
     12771       605  IM1       H6             19.6686240222      -17.5271610817       28.1016741873  IM1       335             0.0000000000
     12772       605  IM1       N2             18.1059239991      -16.0615465597       28.3933466310  IM1       335             0.0000000000
     12773       605  IM1       DN2            18.1048686716      -16.0586612985       28.3893278502  IM1       335             0.0000000000
     12774       605  IM1       H7             18.6179174125      -15.2075760992       28.4860677025  IM1       335             0.0000000000
     12775       605  IM1       LPN21          18.2654015098      -15.8107469167       28.4341689606  IM1       335             0.0000000000
     12776       606  IM1       C1            -19.7949583927       11.7347028537       14.5138339376  IM1       336             0.0000000000
     12777       606  IM1       DC1           -19.8161084046       11.7225648812       14.4948665717  IM1       336             0.0000000000
     12778       606  IM1       H1            -20.0135200300       11.0997229251       13.6287620184  IM1       336             0.0000000000
     12779       606  IM1       H2            -19.4628908160       11.0952554996       15.3595047990  IM1       336             0.0000000000
     12780       606  IM1       H3            -18.9935637092       12.4624845031       14.2639911227  IM1       336             0.0000000000
     12781       606  IM1       N1            -20.9684380007       12.4565848766       14.9124816915  IM1       336             0.0000000000
     12782       606  IM1       DN1           -20.9833473471       12.4477566583       14.8984849878  IM1       336             0.0000000000
     12783       606  IM1       C2            -22.1945794812       12.4318365335       14.2752281103  IM1       336             0.0000000000
     12784       606  IM1       DC2           -22.1900536229       12.4070149145       14.2605942794  IM1       336             0.0000000000
     12785       606  IM1       H4            -22.3989312955       11.8809410024       13.3654789966  IM1       336             0.0000000000
     12786       606  IM1       C3            -23.0313305354       13.1822468986       15.0455945872  IM1       336             0.0000000000
     12787       606  IM1       DC3           -23.0409431772       13.1664950136       15.0270609862  IM1       336             0.0000000000
     12788       606  IM1       H5            -24.0892083357       13.3885739739       14.9397045616  IM1       336             0.0000000000
     12789       606  IM1       C4            -21.0983797824       13.2106547939       16.0324538615  IM1       336             0.0000000000
     12790       606  IM1       DC4           -21.1070554115       13.1893880610       15.9961640799  IM1       336             0.0000000000
     12791       606  IM1       H6            -20.2875444375       13.3968482422       16.7367109476  IM1       336             0.0000000000
     12792       606  IM1       N2            -22.3477064141       13.6710177492       16.1375971562  IM1       336             0.0000000000
     12793       606  IM1       DN2           -22.3575822771       13.6602446094       16.1080296002  IM1       336             0.0000000000
     12794       606  IM1       H7            -22.7102316662       14.2320741099       16.8817686439  IM1       336             0.0000000000
     12795       606  IM1       LPN21         -22.4518324257       13.8457989788       16.3580723146  IM1       336             0.0000000000
     12796       607  IM1       C1            -22.4443707352      -12.0390211947      -18.3076365682  IM1       337             0.0000000000
     12797       607  IM1       DC1           -22.4541233113      -12.0374333290      -18.2718359841  IM1       337             0.0000000000
     12798       607  IM1       H1            -23.0282981874      -11.1693187148      -18.6777275401  IM1       337             0.0000000000
     12799       607  IM1       H2            -22.7064738864      -12.9338055289      -18.9117755701  IM1       337             0.0000000000
     12800       607  IM1       H3            -21.3581226827      -11.8267965556      -18.4043157929  IM1       337             0.0000000000
     12801       607  IM1       N1            -22.7527272217      -12.2968909873      -16.9316076134  IM1       337             0.0000000000
     12802       607  IM1       DN1           -22.7603031878      -12.3059252104      -16.8988699027  IM1       337             0.0000000000
     12803       607  IM1       C2            -23.6638125296      -11.6158109964      -16.1509956665  IM1       337             0.0000000000
     12804       607  IM1       DC2           -23.6433201040      -11.6156976514      -16.1255030545  IM1       337             0.0000000000
     12805       607  IM1       H4            -24.2639183418      -10.7969911351      -16.5282171529  IM1       337             0.0000000000
     12806       607  IM1       C3            -23.6552901721      -12.2333445255      -14.9379437163  IM1       337             0.0000000000
     12807       607  IM1       DC3           -23.6535925055      -12.2370938193      -14.9087943311  IM1       337             0.0000000000
     12808       607  IM1       H5            -24.2263131175      -12.0200065208      -14.0427852434  IM1       337             0.0000000000
     12809       607  IM1       C4            -22.2238653614      -13.2893883422      -16.1758438002  IM1       337             0.0000000000
     12810       607  IM1       DC4           -22.2351041182      -13.2948800838      -16.1728251542  IM1       337             0.0000000000
     12811       607  IM1       H6            -21.4651020727      -13.9787592707      -16.5461760764  IM1       337             0.0000000000
     12812       607  IM1       N2            -22.7567086022      -13.2859927047      -14.9515097324  IM1       337             0.0000000000
     12813       607  IM1       DN2           -22.7623715127      -13.2944270059      -14.9440653972  IM1       337             0.0000000000
     12814       607  IM1       H7            -22.5378133058      -13.9104225916      -14.2017283199  IM1       337             0.0000000000
     12815       607  IM1       LPN21         -22.6899081531      -13.4775601998      -14.7305129115  IM1       337             0.0000000000
     12816       608  IM1       C1             21.2910783525      -16.8913686044        0.9086309041  IM1       338             0.0000000000
     12817       608  IM1       DC1            21.2922172787      -16.8778383646        0.9170911749  IM1       338             0.0000000000
     12818       608  IM1       H1             20.6413727891      -16.5529326602        1.7438942101  IM1       338             0.0000000000
     12819       608  IM1       H2             21.6079740691      -17.9424632987        1.0792124081  IM1       338             0.0000000000
     12820       608  IM1       H3             20.7335401078      -16.8135582096       -0.0491883106  IM1       338             0.0000000000
     12821       608  IM1       N1             22.4548701663      -16.0678619177        0.8308705228  IM1       338             0.0000000000
     12822       608  IM1       DN1            22.4603029390      -16.0652576825        0.8146159932  IM1       338             0.0000000000
     12823       608  IM1       C2             22.8376744845      -15.0925155869        1.7255098584  IM1       338             0.0000000000
     12824       608  IM1       DC2            22.8241272296      -15.1073287715        1.7007040128  IM1       338             0.0000000000
     12825       608  IM1       H4             22.2998820567      -14.8305981200        2.6283207716  IM1       338             0.0000000000
     12826       608  IM1       C3             23.9726670003      -14.5439720428        1.2250222624  IM1       338             0.0000000000
     12827       608  IM1       DC3            23.9659256673      -14.5426779740        1.1975574847  IM1       338             0.0000000000
     12828       608  IM1       H5             24.6007609638      -13.7555620992        1.6209979356  IM1       338             0.0000000000
     12829       608  IM1       C4             23.3579005816      -16.0842265043       -0.1745318928  IM1       338             0.0000000000
     12830       608  IM1       DC4            23.3514183647      -16.0732798935       -0.1744830213  IM1       338             0.0000000000
     12831       608  IM1       H6             23.3333014868      -16.7989632576       -0.9971169997  IM1       338             0.0000000000
     12832       608  IM1       N2             24.2849537730      -15.1513180469        0.0197243112  IM1       338             0.0000000000
     12833       608  IM1       DN2            24.2812103271      -15.1370337787        0.0033252701  IM1       338             0.0000000000
     12834       608  IM1       H7             25.0919308234      -14.9862829678       -0.5473307679  IM1       338             0.0000000000
     12835       608  IM1       LPN21          24.5127256048      -15.0915179261       -0.1661356849  IM1       338             0.0000000000
     12836       609  IM1       C1             -9.2175843486       23.3477234279       -8.0568848067  IM1       339             0.0000000000
     12837       609  IM1       DC1            -9.1952053791       23.3755258069       -8.0753198932  IM1       339             0.0000000000
     12838       609  IM1       H1             -8.3282344205       22.9600983087       -8.5982945159  IM1       339             0.0000000000
     12839       609  IM1       H2            -10.1159212049       22.7690696838       -8.3609764667  IM1       339             0.0000000000
     12840       609  IM1       H3             -9.0970878528       23.2153709568       -6.9603974981  IM1       339             0.0000000000
     12841       609  IM1       N1             -9.4221253912       24.7452802910       -8.3512290044  IM1       339             0.0000000000
     12842       609  IM1       DN1            -9.4100803638       24.7900888781       -8.3609169546  IM1       339             0.0000000000
     12843       609  IM1       C2             -8.6214811196       25.5814198623       -9.1179531538  IM1       339             0.0000000000
     12844       609  IM1       DC2            -8.5964550770       25.6121332396       -9.1195621600  IM1       339             0.0000000000
     12845       609  IM1       H4             -7.7440799777       25.2294907505       -9.6463489683  IM1       339             0.0000000000
     12846       609  IM1       C3             -9.2163606047       26.8078544408       -9.0783539521  IM1       339             0.0000000000
     12847       609  IM1       DC3            -9.2241282903       26.8400787478       -9.0867194492  IM1       339             0.0000000000
     12848       609  IM1       H5             -8.9278700264       27.7398852821       -9.5484397923  IM1       339             0.0000000000
     12849       609  IM1       C4            -10.4579633117       25.4851940318       -7.8825665969  IM1       339             0.0000000000
     12850       609  IM1       DC4           -10.4552793740       25.5018069034       -7.9028224016  IM1       339             0.0000000000
     12851       609  IM1       H6            -11.2306016685       25.0677827114       -7.2368903937  IM1       339             0.0000000000
     12852       609  IM1       N2            -10.3684464425       26.7526049534       -8.3104315619  IM1       339             0.0000000000
     12853       609  IM1       DN2           -10.3777585457       26.7716067092       -8.3189437430  IM1       339             0.0000000000
     12854       609  IM1       H7            -11.0089415389       27.4948186498       -8.1132391164  IM1       339             0.0000000000
     12855       609  IM1       LPN21         -10.5619709096       26.9733084717       -8.2484780501  IM1       339             0.0000000000
     12856       610  IM1       C1              7.2310054847      -27.3970902245       20.4320053776  IM1       340             0.0000000000
     12857       610  IM1       DC1             7.2860097066      -27.4030775615       20.4188352632  IM1       340             0.0000000000
     12858       610  IM1       H1              6.9948303488      -26.3120444945       20.4669062229  IM1       340             0.0000000000
     12859       610  IM1       H2              8.2364367519      -27.5778052694       20.8687788218  IM1       340             0.0000000000
     12860       610  IM1       H3              6.4516659423      -27.9434654654       21.0050891187  IM1       340             0.0000000000
     12861       610  IM1       N1              7.2184961991      -27.8578693559       19.0756383594  IM1       340             0.0000000000
     12862       610  IM1       DN1             7.2349667262      -27.8684440145       19.0650398684  IM1       340             0.0000000000
     12863       610  IM1       C2              6.8674846427      -27.1158497196       17.9686954781  IM1       340             0.0000000000
     12864       610  IM1       DC2             6.9067230547      -27.1155584019       17.9782511653  IM1       340             0.0000000000
     12865       610  IM1       H4              6.4545208778      -26.1165268806       18.0295542687  IM1       340             0.0000000000
     12866       610  IM1       C3              6.9933208414      -27.9536991140       16.9011645812  IM1       340             0.0000000000
     12867       610  IM1       DC3             7.0158619457      -27.9524143348       16.8965335378  IM1       340             0.0000000000
     12868       610  IM1       H5              6.7615018647      -27.7879481988       15.8563317734  IM1       340             0.0000000000
     12869       610  IM1       C4              7.5584215766      -29.1005454359       18.6508467010  IM1       340             0.0000000000
     12870       610  IM1       DC4             7.5651494385      -29.0972154813       18.6578697068  IM1       340             0.0000000000
     12871       610  IM1       H6              7.8506850411      -29.9083513167       19.3217652700  IM1       340             0.0000000000
     12872       610  IM1       N2              7.4554017749      -29.1897297033       17.3261915850  IM1       340             0.0000000000
     12873       610  IM1       DN2             7.4636252979      -29.1890487147       17.3255310482  IM1       340             0.0000000000
     12874       610  IM1       H7              7.6098439209      -30.0045297317       16.7673995510  IM1       340             0.0000000000
     12875       610  IM1       LPN21           7.5210377430      -29.4319547390       17.1618171594  IM1       340             0.0000000000
     12876       611  IM1       C1             11.8061067785      -28.6351033057      -21.4898924665  IM1       341             0.0000000000
     12877       611  IM1       DC1            11.7947239072      -28.6421774129      -21.5084323271  IM1       341             0.0000000000
     12878       611  IM1       H1             10.9042557811      -28.2844823834      -22.0358327098  IM1       341             0.0000000000
     12879       611  IM1       H2             11.5818448503      -28.7115342040      -20.4044497430  IM1       341             0.0000000000
     12880       611  IM1       H3             12.1471298431      -29.6069535981      -21.9064633230  IM1       341             0.0000000000
     12881       611  IM1       N1             12.8772907660      -27.7302777320      -21.6620024468  IM1       341             0.0000000000
     12882       611  IM1       DN1            12.8726209315      -27.7449471422      -21.6545544230  IM1       341             0.0000000000
     12883       611  IM1       C2             12.8987717305      -26.6955401808      -22.5629693380  IM1       341             0.0000000000
     12884       611  IM1       DC2            12.8721895748      -26.7269632952      -22.5523231389  IM1       341             0.0000000000
     12885       611  IM1       H4             12.0389182274      -26.3712580838      -23.1360156493  IM1       341             0.0000000000
     12886       611  IM1       C3             14.1467491174      -26.1607948105      -22.4820519698  IM1       341             0.0000000000
     12887       611  IM1       DC3            14.1238656600      -26.1797296965      -22.4899699393  IM1       341             0.0000000000
     12888       611  IM1       H5             14.5603326278      -25.2839081174      -22.9646567849  IM1       341             0.0000000000
     12889       611  IM1       C4             14.1009883552      -27.8183052707      -21.0875757242  IM1       341             0.0000000000
     12890       611  IM1       DC4            14.0810797361      -27.8263885113      -21.0952759697  IM1       341             0.0000000000
     12891       611  IM1       H6             14.3704266364      -28.5590723692      -20.3347363533  IM1       341             0.0000000000
     12892       611  IM1       N2             14.9029753655      -26.8773940262      -21.5683781091  IM1       341             0.0000000000
     12893       611  IM1       DN2            14.8898632506      -26.8817609029      -21.5759224123  IM1       341             0.0000000000
     12894       611  IM1       H7             15.8441863546      -26.6930842254      -21.2852672275  IM1       341             0.0000000000
     12895       611  IM1       LPN21          15.1892847450      -26.8362183958      -21.4888073439  IM1       341             0.0000000000
     12896       612  IM1       C1            -16.1936074123      -16.2931829397       21.9117460387  IM1       342             0.0000000000
     12897       612  IM1       DC1           -16.2270859671      -16.2776776592       21.8904897606  IM1       342             0.0000000000
     12898       612  IM1       H1            -16.9999420152      -15.5844299754       21.6257132719  IM1       342             0.0000000000
     12899       612  IM1       H2            -16.5984536392      -17.3229468427       22.0117802210  IM1       342             0.0000000000
     12900       612  IM1       H3            -15.4017712932      -16.2632202582       21.1330170752  IM1       342             0.0000000000
     12901       612  IM1       N1            -15.6393153036      -15.8960629761       23.1630953082  IM1       342             0.0000000000
     12902       612  IM1       DN1           -15.6551154190      -15.9040465263       23.1398277070  IM1       342             0.0000000000
     12903       612  IM1       C2            -15.9873023833      -14.7638189553       23.8623165578  IM1       342             0.0000000000
     12904       612  IM1       DC2           -16.0176068098      -14.7906916818       23.8275091861  IM1       342             0.0000000000
     12905       612  IM1       H4            -16.6066231797      -13.9587347623       23.4865903336  IM1       342             0.0000000000
     12906       612  IM1       C3            -15.2983834443      -14.8276554276       25.0322111727  IM1       342             0.0000000000
     12907       612  IM1       DC3           -15.3177880684      -14.8362184918       25.0133925613  IM1       342             0.0000000000
     12908       612  IM1       H5            -15.2125506367      -14.1080359368       25.8369903459  IM1       342             0.0000000000
     12909       612  IM1       C4            -14.7613061912      -16.5965129527       23.9201054385  IM1       342             0.0000000000
     12910       612  IM1       DC4           -14.7919428743      -16.5759011608       23.9054496923  IM1       342             0.0000000000
     12911       612  IM1       H6            -14.3038774119      -17.5387573945       23.6183864902  IM1       342             0.0000000000
     12912       612  IM1       N2            -14.5309394803      -15.9692323463       25.0673142060  IM1       342             0.0000000000
     12913       612  IM1       DN2           -14.5448432990      -15.9580644431       25.0668577847  IM1       342             0.0000000000
     12914       612  IM1       H7            -13.8762689780      -16.2430889343       25.7718772640  IM1       342             0.0000000000
     12915       612  IM1       LPN21         -14.3473190927      -16.0639110836       25.2848446406  IM1       342             0.0000000000
     12916       613  IM1       C1            -15.9455305206       27.2091886672       15.0048152021  IM1       343             0.0000000000
     12917       613  IM1       DC1           -15.9536648285       27.2223301776       14.9793419260  IM1       343             0.0000000000
     12918       613  IM1       H1            -16.4124214464       28.2065890215       15.1515339763  IM1       343             0.0000000000
     12919       613  IM1       H2            -16.3662696716       26.5015357062       15.7508224770  IM1       343             0.0000000000
     12920       613  IM1       H3            -16.1350937788       26.8446383147       13.9725895428  IM1       343             0.0000000000
     12921       613  IM1       N1            -14.5324718302       27.3023250665       15.2105575843  IM1       343             0.0000000000
     12922       613  IM1       DN1           -14.5370367207       27.3022994969       15.2019987463  IM1       343             0.0000000000
     12923       613  IM1       C2            -13.8171448577       28.4737378367       15.2895616395  IM1       343             0.0000000000
     12924       613  IM1       DC2           -13.8338360358       28.4702106683       15.2721176169  IM1       343             0.0000000000
     12925       613  IM1       H4            -14.2743250695       29.4548460086       15.2534782756  IM1       343             0.0000000000
     12926       613  IM1       C3            -12.5157175113       28.1107883075       15.4560496804  IM1       343             0.0000000000
     12927       613  IM1       DC3           -12.5154133020       28.1290421278       15.4495701522  IM1       343             0.0000000000
     12928       613  IM1       H5            -11.6290794635       28.7212442192       15.5748164793  IM1       343             0.0000000000
     12929       613  IM1       C4            -13.6521209709       26.2749756927       15.2964053064  IM1       343             0.0000000000
     12930       613  IM1       DC4           -13.6657513186       26.2912135459       15.2811155224  IM1       343             0.0000000000
     12931       613  IM1       H6            -13.9366245132       25.2260926919       15.2127262477  IM1       343             0.0000000000
     12932       613  IM1       N2            -12.4109404936       26.7339689219       15.4441669796  IM1       343             0.0000000000
     12933       613  IM1       DN2           -12.4184621929       26.7500879423       15.4389868044  IM1       343             0.0000000000
     12934       613  IM1       H7            -11.5742675158       26.1889771273       15.4985937385  IM1       343             0.0000000000
     12935       613  IM1       LPN21         -12.1639700494       26.5654933340       15.4690984053  IM1       343             0.0000000000
     12936       614  IM1       C1              2.4085803270       16.9853180155        9.3338205187  IM1       344             0.0000000000
     12937       614  IM1       DC1             2.4102216332       16.9828165280        9.3336048290  IM1       344             0.0000000000
     12938       614  IM1       H1              3.1570815873       16.2411302618        9.6805934302  IM1       344             0.0000000000
     12939       614  IM1       H2              2.5552566359       17.9388603360        9.8847870367  IM1       344             0.0000000000
     12940       614  IM1       H3              2.5272807532       17.1395017113        8.2399930201  IM1       344             0.0000000000
     12941       614  IM1       N1              1.0860771852       16.5076759987        9.5816568186  IM1       344             0.0000000000
     12942       614  IM1       DN1             1.0759734431       16.5329725666        9.5801472650  IM1       344             0.0000000000
     12943       614  IM1       C2              0.7539277284       15.2687125652       10.0735818649  IM1       344             0.0000000000
     12944       614  IM1       DC2             0.7627405118       15.2987305947       10.0641828298  IM1       344             0.0000000000
     12945       614  IM1       H4              1.4760752094       14.5141054140       10.3598685468  IM1       344             0.0000000000
     12946       614  IM1       C3             -0.6038760858       15.2471024744       10.1350976719  IM1       344             0.0000000000
     12947       614  IM1       DC3            -0.6109322302       15.2615410943       10.1357576378  IM1       344             0.0000000000
     12948       614  IM1       H5             -1.2688188792       14.4635872208       10.4769220847  IM1       344             0.0000000000
     12949       614  IM1       C4             -0.0641080032       17.1946887727        9.3705258819  IM1       344             0.0000000000
     12950       614  IM1       DC4            -0.0628308502       17.2122234084        9.3683798534  IM1       344             0.0000000000
     12951       614  IM1       H6             -0.0918513567       18.2152733477        8.9887701567  IM1       344             0.0000000000
     12952       614  IM1       N2             -1.1195986383       16.4567628031        9.6927597851  IM1       344             0.0000000000
     12953       614  IM1       DN2            -1.1222465589       16.4667154897        9.6926208326  IM1       344             0.0000000000
     12954       614  IM1       H7             -2.0813550201       16.7251712676        9.6381561393  IM1       344             0.0000000000
     12955       614  IM1       LPN21          -1.4061455323       16.5428456002        9.6708365202  IM1       344             0.0000000000
     12956       615  IM1       C1             15.0930297911       -0.6261507484       27.9985380379  IM1       345             0.0000000000
     12957       615  IM1       DC1            15.0829650433       -0.6073011779       28.0136802795  IM1       345             0.0000000000
     12958       615  IM1       H1             14.6688157832        0.2036232264       28.6033839904  IM1       345             0.0000000000
     12959       615  IM1       H2             16.1916051703       -0.6835390855       28.1539719993  IM1       345             0.0000000000
     12960       615  IM1       H3             14.6149518949       -1.5853223922       28.2913729460  IM1       345             0.0000000000
     12961       615  IM1       N1             14.8439964187       -0.3979427874       26.6085634453  IM1       345             0.0000000000
     12962       615  IM1       DN1            14.8430002261       -0.4000973751       26.6165431900  IM1       345             0.0000000000
     12963       615  IM1       C2             14.1456926230        0.6661266834       26.0839728929  IM1       345             0.0000000000
     12964       615  IM1       DC2            14.1447358581        0.6600652918       26.1182001087  IM1       345             0.0000000000
     12965       615  IM1       H4             13.7545575855        1.4871333515       26.6720633905  IM1       345             0.0000000000
     12966       615  IM1       C3             14.0433784455        0.4240670892       24.7455143315  IM1       345             0.0000000000
     12967       615  IM1       DC3            14.0372021571        0.4316414251       24.7659182124  IM1       345             0.0000000000
     12968       615  IM1       H5             13.5368140743        0.9876612359       23.9717939843  IM1       345             0.0000000000
     12969       615  IM1       C4             15.1421195292       -1.2432554490       25.5894774514  IM1       345             0.0000000000
     12970       615  IM1       DC4            15.1366910912       -1.2252333949       25.6071145820  IM1       345             0.0000000000
     12971       615  IM1       H6             15.6590487499       -2.1936298980       25.7224157395  IM1       345             0.0000000000
     12972       615  IM1       N2             14.6686680305       -0.7704760682       24.4383621281  IM1       345             0.0000000000
     12973       615  IM1       DN2            14.6661663436       -0.7594287175       24.4480157112  IM1       345             0.0000000000
     12974       615  IM1       H7             14.7166848594       -1.2139102277       23.5433422790  IM1       345             0.0000000000
     12975       615  IM1       LPN21          14.6965685961       -0.9030156838       24.1706779696  IM1       345             0.0000000000
     12976       616  IM1       C1             12.0932611953       22.2567725671      -19.5504361683  IM1       346             0.0000000000
     12977       616  IM1       DC1            12.0934794846       22.2632065028      -19.5457981191  IM1       346             0.0000000000
     12978       616  IM1       H1             12.9538148260       22.9214011825      -19.7785529211  IM1       346             0.0000000000
     12979       616  IM1       H2             12.2252955020       21.8323204143      -18.5322376062  IM1       346             0.0000000000
     12980       616  IM1       H3             11.1482823932       22.8390846400      -19.5978567869  IM1       346             0.0000000000
     12981       616  IM1       N1             12.0406515996       21.1844191608      -20.5036424449  IM1       346             0.0000000000
     12982       616  IM1       DN1            12.0205843489       21.1840261574      -20.4873292575  IM1       346             0.0000000000
     12983       616  IM1       C2             13.0055427528       20.9043035110      -21.4434630666  IM1       346             0.0000000000
     12984       616  IM1       DC2            12.9717350137       20.9170672501      -21.4193611779  IM1       346             0.0000000000
     12985       616  IM1       H4             13.8963658375       21.5022835122      -21.5909186528  IM1       346             0.0000000000
     12986       616  IM1       C3             12.6039872170       19.7622299776      -22.0693068570  IM1       346             0.0000000000
     12987       616  IM1       DC3            12.5975076720       19.7709778445      -22.0637939736  IM1       346             0.0000000000
     12988       616  IM1       H5             13.0749800103       19.2045240119      -22.8693186347  IM1       346             0.0000000000
     12989       616  IM1       C4             11.0941471640       20.2144622878      -20.5830259731  IM1       346             0.0000000000
     12990       616  IM1       DC4            11.0973004271       20.2201261454      -20.5698562170  IM1       346             0.0000000000
     12991       616  IM1       H6             10.2118549162       20.1720350014      -19.9443865484  IM1       346             0.0000000000
     12992       616  IM1       N2             11.4046075301       19.3296806259      -21.5250048022  IM1       346             0.0000000000
     12993       616  IM1       DN2            11.4037255725       19.3331888039      -21.5185589857  IM1       346             0.0000000000
     12994       616  IM1       H7             10.8828165554       18.5155759123      -21.7798924128  IM1       346             0.0000000000
     12995       616  IM1       LPN21          11.2417859742       19.0884528257      -21.5977941513  IM1       346             0.0000000000
     12996       617  IM1       C1             20.8272294687       19.5884848696       14.0934839407  IM1       347             0.0000000000
     12997       617  IM1       DC1            20.8467834373       19.5732759017       14.1065121098  IM1       347             0.0000000000
     12998       617  IM1       H1             20.3164517345       18.6371597741       13.8319353414  IM1       347             0.0000000000
     12999       617  IM1       H2             20.5877141556       20.3571340537       13.3278914600  IM1       347             0.0000000000
     13000       617  IM1       H3             20.4670106000       19.9365517962       15.0851556520  IM1       347             0.0000000000
     13001       617  IM1       N1             22.2457814944       19.3998600662       14.1294442339  IM1       347             0.0000000000
     13002       617  IM1       DN1            22.2625684443       19.4148060890       14.1401312569  IM1       347             0.0000000000
     13003       617  IM1       C2             22.9214673857       18.2007049463       14.1304887963  IM1       347             0.0000000000
     13004       617  IM1       DC2            22.9038469044       18.2190423401       14.1331026076  IM1       347             0.0000000000
     13005       617  IM1       H4             22.4554321908       17.2309379283       14.0069892904  IM1       347             0.0000000000
     13006       617  IM1       C3             24.2370697477       18.5088711441       14.2937840805  IM1       347             0.0000000000
     13007       617  IM1       DC3            24.2324456768       18.5362579995       14.2962734537  IM1       347             0.0000000000
     13008       617  IM1       H5             25.0996803038       17.8554759885       14.3369905523  IM1       347             0.0000000000
     13009       617  IM1       C4             23.1573609165       20.3855805621       14.3040366270  IM1       347             0.0000000000
     13010       617  IM1       DC4            23.1611771527       20.3884108927       14.3106237285  IM1       347             0.0000000000
     13011       617  IM1       H6             22.8936956257       21.4432007828       14.3085182025  IM1       347             0.0000000000
     13012       617  IM1       N2             24.3848609475       19.8822160162       14.4231142285  IM1       347             0.0000000000
     13013       617  IM1       DN2            24.4001554374       19.8974533156       14.4387840966  IM1       347             0.0000000000
     13014       617  IM1       H7             25.2385622137       20.3916464565       14.5311641015  IM1       347             0.0000000000
     13015       617  IM1       LPN21          24.6354620281       20.0408029490       14.4683832373  IM1       347             0.0000000000
     13016       618  IM1       C1            -23.3467521704      -26.6989260344      -22.1223350851  IM1       348             0.0000000000
     13017       618  IM1       DC1           -23.3294218496      -26.7064541397      -22.1317815017  IM1       348             0.0000000000
     13018       618  IM1       H1            -22.3178019251      -26.7837834597      -22.5326783699  IM1       348             0.0000000000
     13019       618  IM1       H2            -24.0238135962      -27.4132429703      -22.6377573793  IM1       348             0.0000000000
     13020       618  IM1       H3            -23.3286219901      -26.9113090981      -21.0319747177  IM1       348             0.0000000000
     13021       618  IM1       N1            -23.8454980029      -25.3731520376      -22.3234880211  IM1       348             0.0000000000
     13022       618  IM1       DN1           -23.8503986311      -25.3895896909      -22.3093747265  IM1       348             0.0000000000
     13023       618  IM1       C2            -23.2483879067      -24.3699840426      -23.0597281075  IM1       348             0.0000000000
     13024       618  IM1       DC2           -23.2368285792      -24.4203728281      -23.0450136901  IM1       348             0.0000000000
     13025       618  IM1       H4            -22.2971332024      -24.4608145517      -23.5693880982  IM1       348             0.0000000000
     13026       618  IM1       C3            -24.0635256408      -23.2806794469      -22.9358865002  IM1       348             0.0000000000
     13027       618  IM1       DC3           -24.0283934435      -23.3124458627      -22.9198597502  IM1       348             0.0000000000
     13028       618  IM1       H5            -23.9588578428      -22.2761404066      -23.3268276319  IM1       348             0.0000000000
     13029       618  IM1       C4            -24.9857908341      -24.8720085838      -21.7828443267  IM1       348             0.0000000000
     13030       618  IM1       DC4           -24.9648713681      -24.8862242441      -21.7792329347  IM1       348             0.0000000000
     13031       618  IM1       H6            -25.6911853748      -25.4607845912      -21.1964474005  IM1       348             0.0000000000
     13032       618  IM1       N2            -25.1311910369      -23.5935164235      -22.1077003482  IM1       348             0.0000000000
     13033       618  IM1       DN2           -25.1055374141      -23.6061465325      -22.0946856950  IM1       348             0.0000000000
     13034       618  IM1       H7            -25.8966413427      -22.9974220686      -21.8653011954  IM1       348             0.0000000000
     13035       618  IM1       LPN21         -25.3544558281      -23.4158436895      -22.0150438180  IM1       348             0.0000000000
     13036       619  IM1       C1             22.4642716232      -12.3343866523       20.2984941513  IM1       349             0.0000000000
     13037       619  IM1       DC1            22.4823651605      -12.3371654956       20.2739853445  IM1       349             0.0000000000
     13038       619  IM1       H1             23.4239827713      -12.7424415387       19.9153926969  IM1       349             0.0000000000
     13039       619  IM1       H2             22.5090344008      -11.2245558681       20.3228441889  IM1       349             0.0000000000
     13040       619  IM1       H3             21.6262156158      -12.6730440639       19.6525109582  IM1       349             0.0000000000
     13041       619  IM1       N1             22.2314264269      -12.8062888201       21.6298862933  IM1       349             0.0000000000
     13042       619  IM1       DN1            22.2438430552      -12.8035543617       21.6184029034  IM1       349             0.0000000000
     13043       619  IM1       C2             23.0416183608      -13.6867202062       22.3160531055  IM1       349             0.0000000000
     13044       619  IM1       DC2            23.0477189693      -13.6714248173       22.3101396969  IM1       349             0.0000000000
     13045       619  IM1       H4             23.9849213132      -14.0638949361       21.9408095003  IM1       349             0.0000000000
     13046       619  IM1       C3             22.3849471341      -13.9754951383       23.4698652508  IM1       349             0.0000000000
     13047       619  IM1       DC3            22.4030991205      -13.9774394478       23.4831266602  IM1       349             0.0000000000
     13048       619  IM1       H5             22.6592724257      -14.6334605730       24.2851664964  IM1       349             0.0000000000
     13049       619  IM1       C4             21.1229059582      -12.5879824936       22.3840380295  IM1       349             0.0000000000
     13050       619  IM1       DC4            21.1512519863      -12.6103044327       22.3621660859  IM1       349             0.0000000000
     13051       619  IM1       H6             20.3078592967      -11.9247807041       22.0942754957  IM1       349             0.0000000000
     13052       619  IM1       N2             21.1921695144      -13.2874284449       23.5173675193  IM1       349             0.0000000000
     13053       619  IM1       DN2            21.2161023517      -13.3014674978       23.5117105891  IM1       349             0.0000000000
     13054       619  IM1       H7             20.5084752713      -13.2971970030       24.2470707173  IM1       349             0.0000000000
     13055       619  IM1       LPN21          20.9853537231      -13.2894892748       23.7346760130  IM1       349             0.0000000000
     13056       620  IM1       C1             23.4543049722      -23.2807387786       15.3081013652  IM1       350             0.0000000000
     13057       620  IM1       DC1            23.4465312104      -23.2926190117       15.2971159018  IM1       350             0.0000000000
     13058       620  IM1       H1             22.5306319472      -23.8830977937       15.1727767163  IM1       350             0.0000000000
     13059       620  IM1       H2             23.2398225844      -22.2092906681       15.1073097995  IM1       350             0.0000000000
     13060       620  IM1       H3             23.8270735378      -23.4085637913       16.3468628213  IM1       350             0.0000000000
     13061       620  IM1       N1             24.4703453366      -23.7190034151       14.4026611940  IM1       350             0.0000000000
     13062       620  IM1       DN1            24.4666840040      -23.7344454027       14.3931406289  IM1       350             0.0000000000
     13063       620  IM1       C2             24.3426137029      -24.7465206432       13.4951254550  IM1       350             0.0000000000
     13064       620  IM1       DC2            24.3014799093      -24.7615008618       13.4959149445  IM1       350             0.0000000000
     13065       620  IM1       H4             23.4074236279      -25.2690584541       13.3361828242  IM1       350             0.0000000000
     13066       620  IM1       C3             25.5602148949      -24.8734206768       12.9039575213  IM1       350             0.0000000000
     13067       620  IM1       DC3            25.5273870722      -24.8949170876       12.9143623105  IM1       350             0.0000000000
     13068       620  IM1       H5             25.8959047970      -25.5397081166       12.1189337399  IM1       350             0.0000000000
     13069       620  IM1       C4             25.7420661599      -23.2553851904       14.3336181649  IM1       350             0.0000000000
     13070       620  IM1       DC4            25.7146540376      -23.2708053464       14.3377660767  IM1       350             0.0000000000
     13071       620  IM1       H6             26.1164904923      -22.4170665829       14.9210944042  IM1       350             0.0000000000
     13072       620  IM1       N2             26.4383646797      -23.9485402553       13.4379444551  IM1       350             0.0000000000
     13073       620  IM1       DN2            26.4193881946      -23.9646659063       13.4406728054  IM1       350             0.0000000000
     13074       620  IM1       H7             27.3888711449      -23.7918753156       13.1696283055  IM1       350             0.0000000000
     13075       620  IM1       LPN21          26.7277888804      -23.9059046682       13.3714926776  IM1       350             0.0000000000
     13076       621  IM1       C1             13.5509683004       -4.7036923196      -17.7334236799  IM1       351             0.0000000000
     13077       621  IM1       DC1            13.5514259436       -4.6938915793      -17.7205500463  IM1       351             0.0000000000
     13078       621  IM1       H1             14.4868017139       -5.2757266216      -17.5564672446  IM1       351             0.0000000000
     13079       621  IM1       H2             13.1424189407       -4.9635102917      -18.7333751998  IM1       351             0.0000000000
     13080       621  IM1       H3             12.8044179110       -4.9281428889      -16.9418395345  IM1       351             0.0000000000
     13081       621  IM1       N1             13.8209193547       -3.3113049596      -17.7394473876  IM1       351             0.0000000000
     13082       621  IM1       DN1            13.8186754128       -3.2993684350      -17.7294867523  IM1       351             0.0000000000
     13083       621  IM1       C2             15.0425929122       -2.7227770927      -17.5103724151  IM1       351             0.0000000000
     13084       621  IM1       DC2            15.0241267725       -2.7154542348      -17.4903322186  IM1       351             0.0000000000
     13085       621  IM1       H4             15.9520855173       -3.2695229349      -17.2940828258  IM1       351             0.0000000000
     13086       621  IM1       C3             14.8562029136       -1.4015009859      -17.7320172747  IM1       351             0.0000000000
     13087       621  IM1       DC3            14.8561294286       -1.3793995876      -17.7030842228  IM1       351             0.0000000000
     13088       621  IM1       H5             15.5599948266       -0.5792855677      -17.6929308415  IM1       351             0.0000000000
     13089       621  IM1       C4             12.9351780219       -2.3378176415      -18.0565826416  IM1       351             0.0000000000
     13090       621  IM1       DC4            12.9424963004       -2.3446711423      -18.0406226124  IM1       351             0.0000000000
     13091       621  IM1       H6             11.8832185211       -2.5140545908      -18.2811305128  IM1       351             0.0000000000
     13092       621  IM1       N2             13.5300495772       -1.1528171464      -18.0297175616  IM1       351             0.0000000000
     13093       621  IM1       DN2            13.5334009402       -1.1509724202      -18.0054102716  IM1       351             0.0000000000
     13094       621  IM1       H7             13.1093324100       -0.2659129524      -18.2205002021  IM1       351             0.0000000000
     13095       621  IM1       LPN21          13.3955810319       -0.8893043960      -18.0795095358  IM1       351             0.0000000000
     13096       622  IM1       C1            -19.0980596256      -16.2736910720       23.1918924326  IM1       352             0.0000000000
     13097       622  IM1       DC1           -19.1276600383      -16.2713679355       23.1866949887  IM1       352             0.0000000000
     13098       622  IM1       H1            -19.7906393292      -17.0064576456       23.6584838002  IM1       352             0.0000000000
     13099       622  IM1       H2            -18.1545457235      -16.2729345009       23.7784944652  IM1       352             0.0000000000
     13100       622  IM1       H3            -18.9051160987      -16.5627617305       22.1366521994  IM1       352             0.0000000000
     13101       622  IM1       N1            -19.6601460361      -14.9592352059       23.2222816603  IM1       352             0.0000000000
     13102       622  IM1       DN1           -19.6637330270      -14.9479746688       23.2156714584  IM1       352             0.0000000000
     13103       622  IM1       C2            -20.7872233353      -14.6227204335       23.9325029802  IM1       352             0.0000000000
     13104       622  IM1       DC2           -20.7817752391      -14.6386473872       23.9212830937  IM1       352             0.0000000000
     13105       622  IM1       H4            -21.3486625304      -15.3234299892       24.5380450091  IM1       352             0.0000000000
     13106       622  IM1       C3            -20.9609157286      -13.2884437722       23.7470612128  IM1       352             0.0000000000
     13107       622  IM1       DC3           -20.9693873532      -13.2838367152       23.7358082470  IM1       352             0.0000000000
     13108       622  IM1       H5            -21.7171595303      -12.6287185346       24.1541814940  IM1       352             0.0000000000
     13109       622  IM1       C4            -19.1879847355      -13.8309127722       22.6282486243  IM1       352             0.0000000000
     13110       622  IM1       DC4           -19.1959227327      -13.8370403179       22.6297003386  IM1       352             0.0000000000
     13111       622  IM1       H6            -18.2831537008      -13.7937242507       22.0216203908  IM1       352             0.0000000000
     13112       622  IM1       N2            -19.9702078656      -12.7909936563       22.9163264196  IM1       352             0.0000000000
     13113       622  IM1       DN2           -19.9769102036      -12.7858329985       22.9148501226  IM1       352             0.0000000000
     13114       622  IM1       H7            -19.8471189265      -11.8449364757       22.6166183546  IM1       352             0.0000000000
     13115       622  IM1       LPN21         -19.9321114876      -12.5103999811       22.8172514204  IM1       352             0.0000000000
     13116       623  IM1       C1             21.0565673388      -12.6093036451        8.8124168205  IM1       353             0.0000000000
     13117       623  IM1       DC1            21.0479966160      -12.5917262673        8.8338823220  IM1       353             0.0000000000
     13118       623  IM1       H1             21.5929960752      -11.7350638437        9.2393477070  IM1       353             0.0000000000
     13119       623  IM1       H2             20.0056962191      -12.3378100221        8.5751783269  IM1       353             0.0000000000
     13120       623  IM1       H3             21.5683032371      -12.9510492183        7.8873993431  IM1       353             0.0000000000
     13121       623  IM1       N1             21.0511724308      -13.6773701082        9.7550881772  IM1       353             0.0000000000
     13122       623  IM1       DN1            21.0464960297      -13.6805994532        9.7534737898  IM1       353             0.0000000000
     13123       623  IM1       C2             21.4457426432      -13.6087460024       11.0719813413  IM1       353             0.0000000000
     13124       623  IM1       DC2            21.4274482507      -13.5968331643       11.0577554057  IM1       353             0.0000000000
     13125       623  IM1       H4             21.9684982456      -12.7675697931       11.5102029348  IM1       353             0.0000000000
     13126       623  IM1       C3             21.1413589311      -14.8187353810       11.6128604811  IM1       353             0.0000000000
     13127       623  IM1       DC3            21.1328131261      -14.8211451052       11.6123964888  IM1       353             0.0000000000
     13128       623  IM1       H5             21.3252166748      -15.2075012545       12.6068154226  IM1       353             0.0000000000
     13129       623  IM1       C4             20.5215761885      -14.9038803642        9.5431592391  IM1       353             0.0000000000
     13130       623  IM1       DC4            20.5149336538      -14.8862243104        9.5506588806  IM1       353             0.0000000000
     13131       623  IM1       H6             20.1484745720      -15.2351331295        8.5740530585  IM1       353             0.0000000000
     13132       623  IM1       N2             20.5463032111      -15.6248850888       10.6585960140  IM1       353             0.0000000000
     13133       623  IM1       DN2            20.5386395678      -15.6272622362       10.6653053975  IM1       353             0.0000000000
     13134       623  IM1       H7             20.2368777429      -16.5703523862       10.7603185247  IM1       353             0.0000000000
     13135       623  IM1       LPN21          20.4418410903      -15.9045624271       10.6880621260  IM1       353             0.0000000000
     13136       624  IM1       C1              1.3880397002        0.5248662125      -17.0139755148  IM1       354             0.0000000000
     13137       624  IM1       DC1             1.3816237033        0.5664732575      -17.0422405434  IM1       354             0.0000000000
     13138       624  IM1       H1              1.9554492772        0.0762177983      -17.8572322809  IM1       354             0.0000000000
     13139       624  IM1       H2              0.2946810332        0.4943334365      -17.2087974208  IM1       354             0.0000000000
     13140       624  IM1       H3              1.5770832441       -0.0623573866      -16.0899885098  IM1       354             0.0000000000
     13141       624  IM1       N1              1.7955104974        1.8773671930      -16.7836658665  IM1       354             0.0000000000
     13142       624  IM1       DN1             1.8138439265        1.9090154005      -16.8017946495  IM1       354             0.0000000000
     13143       624  IM1       C2              2.6567802910        2.6426675757      -17.5476290977  IM1       354             0.0000000000
     13144       624  IM1       DC2             2.6629164903        2.6520776271      -17.5759574669  IM1       354             0.0000000000
     13145       624  IM1       H4              3.1279692508        2.2868079309      -18.4555023693  IM1       354             0.0000000000
     13146       624  IM1       C3              2.7916321613        3.8236469042      -16.8846811047  IM1       354             0.0000000000
     13147       624  IM1       DC3             2.8050693200        3.8334915901      -16.9049554666  IM1       354             0.0000000000
     13148       624  IM1       H5              3.3826755590        4.7002282760      -17.1195465996  IM1       354             0.0000000000
     13149       624  IM1       C4              1.4286030586        2.6144013253      -15.7095471032  IM1       354             0.0000000000
     13150       624  IM1       DC4             1.4465400599        2.6031769028      -15.7293610644  IM1       354             0.0000000000
     13151       624  IM1       H6              0.7220613152        2.2657179644      -14.9563415013  IM1       354             0.0000000000
     13152       624  IM1       N2              2.0330615771        3.8016735662      -15.7331323933  IM1       354             0.0000000000
     13153       624  IM1       DN2             2.0531657917        3.7959874446      -15.7481988847  IM1       354             0.0000000000
     13154       624  IM1       H7              1.9177055900        4.5381025310      -15.0665250306  IM1       354             0.0000000000
     13155       624  IM1       LPN21           2.0046489931        4.0162334083      -15.5253902473  IM1       354             0.0000000000
     13156       625  IM1       C1            -22.2877277479       10.4943228134       11.1024019107  IM1       355             0.0000000000
     13157       625  IM1       DC1           -22.2818749621       10.4920541559       11.0948400353  IM1       355             0.0000000000
     13158       625  IM1       H1            -21.3551670789       10.9673574357       11.4777548689  IM1       355             0.0000000000
     13159       625  IM1       H2            -22.0380542733        9.5595593153       10.5563237490  IM1       355             0.0000000000
     13160       625  IM1       H3            -22.9570636301       10.2742516317       11.9614008340  IM1       355             0.0000000000
     13161       625  IM1       N1            -22.9621247498       11.3887151468       10.2121721129  IM1       355             0.0000000000
     13162       625  IM1       DN1           -22.9813478881       11.3664415374       10.2038185276  IM1       355             0.0000000000
     13163       625  IM1       C2            -22.5427148323       12.6478419131        9.8539201443  IM1       355             0.0000000000
     13164       625  IM1       DC2           -22.5527936935       12.6051975896        9.8644239476  IM1       355             0.0000000000
     13165       625  IM1       H4            -21.6446674196       13.1248434666       10.2265719444  IM1       355             0.0000000000
     13166       625  IM1       C3            -23.4799323507       13.1234970285        8.9877950214  IM1       355             0.0000000000
     13167       625  IM1       DC3           -23.4890159139       13.1037293908        8.9907032707  IM1       355             0.0000000000
     13168       625  IM1       H5            -23.5283837578       14.0759320247        8.4745611184  IM1       355             0.0000000000
     13169       625  IM1       C4            -24.1241758800       11.1402158395        9.5627271546  IM1       355             0.0000000000
     13170       625  IM1       DC4           -24.1293924014       11.1186471173        9.5606325154  IM1       355             0.0000000000
     13171       625  IM1       H6            -24.6808021480       10.2071253357        9.6499585212  IM1       355             0.0000000000
     13172       625  IM1       N2            -24.4762604021       12.1736030194        8.8101380672  IM1       355             0.0000000000
     13173       625  IM1       DN2           -24.4830086131       12.1629647948        8.8146494718  IM1       355             0.0000000000
     13174       625  IM1       H7            -25.2851138728       12.2425949002        8.2261892824  IM1       355             0.0000000000
     13175       625  IM1       LPN21         -24.7228914648       12.1888252856        8.6400163416  IM1       355             0.0000000000
     13176       626  IM1       C1            -10.7614267598        3.8641437767      -13.0402865937  IM1       356             0.0000000000
     13177       626  IM1       DC1           -10.7577569639        3.8733627291      -13.0162320914  IM1       356             0.0000000000
     13178       626  IM1       H1            -11.5230442991        4.6649965394      -13.1538408886  IM1       356             0.0000000000
     13179       626  IM1       H2            -11.2326650511        2.8747508533      -13.2229259015  IM1       356             0.0000000000
     13180       626  IM1       H3             -9.9489944719        4.0162050261      -13.7826828181  IM1       356             0.0000000000
     13181       626  IM1       N1            -10.2209419870        3.8714169387      -11.7187302159  IM1       356             0.0000000000
     13182       626  IM1       DN1           -10.2054612624        3.8484182726      -11.7170248738  IM1       356             0.0000000000
     13183       626  IM1       C2            -10.5668237252        4.7230617260      -10.6946008956  IM1       356             0.0000000000
     13184       626  IM1       DC2           -10.5590458170        4.7108869629      -10.7401638981  IM1       356             0.0000000000
     13185       626  IM1       H4            -11.3145445961        5.5036736114      -10.7612911098  IM1       356             0.0000000000
     13186       626  IM1       C3             -9.8125499106        4.3440636712       -9.6232290842  IM1       356             0.0000000000
     13187       626  IM1       DC3            -9.8126956731        4.3383376493       -9.6501722470  IM1       356             0.0000000000
     13188       626  IM1       H5             -9.7847122374        4.7419150277       -8.6163386422  IM1       356             0.0000000000
     13189       626  IM1       C4             -9.2879740737        3.0097261701      -11.2468719854  IM1       356             0.0000000000
     13190       626  IM1       DC4            -9.2834151387        2.9970919010      -11.2644063093  IM1       356             0.0000000000
     13191       626  IM1       H6             -8.8441837475        2.2134229142      -11.8444096603  IM1       356             0.0000000000
     13192       626  IM1       N2             -9.0077600598        3.2688417518       -9.9773245133  IM1       356             0.0000000000
     13193       626  IM1       DN2            -9.0066318661        3.2664130655       -9.9895122324  IM1       356             0.0000000000
     13194       626  IM1       H7             -8.3665583580        2.7737886546       -9.3909945648  IM1       356             0.0000000000
     13195       626  IM1       LPN21          -8.8089663540        3.1192925227       -9.8096459798  IM1       356             0.0000000000
     13196       627  IM1       C1             27.0509926434       -4.0393546791       -8.2017602389  IM1       357             0.0000000000
     13197       627  IM1       DC1            27.0465479688       -4.0297913449       -8.1889714541  IM1       357             0.0000000000
     13198       627  IM1       H1             28.1031144043       -3.9492458755       -7.8564470421  IM1       357             0.0000000000
     13199       627  IM1       H2             27.0199412998       -4.6315952468       -9.1412323918  IM1       357             0.0000000000
     13200       627  IM1       H3             26.4408016840       -4.5149744301       -7.4044059590  IM1       357             0.0000000000
     13201       627  IM1       N1             26.5092025769       -2.7523035931       -8.4738661116  IM1       357             0.0000000000
     13202       627  IM1       DN1            26.4887953214       -2.7465963396       -8.4718394470  IM1       357             0.0000000000
     13203       627  IM1       C2             27.2143113674       -1.5725814770       -8.4842600343  IM1       357             0.0000000000
     13204       627  IM1       DC2            27.2022622267       -1.5909863303       -8.4648713463  IM1       357             0.0000000000
     13205       627  IM1       H4             28.2742416857       -1.5004591945       -8.2739386212  IM1       357             0.0000000000
     13206       627  IM1       C3             26.3237598157       -0.6143217399       -8.8531920303  IM1       357             0.0000000000
     13207       627  IM1       DC3            26.3114552037       -0.6256295089       -8.8199517139  IM1       357             0.0000000000
     13208       627  IM1       H5             26.4716698336        0.4476478064       -9.0056135161  IM1       357             0.0000000000
     13209       627  IM1       C4             25.2267377320       -2.4786063343       -8.8170391155  IM1       357             0.0000000000
     13210       627  IM1       DC4            25.2205115253       -2.4829272079       -8.8078790531  IM1       357             0.0000000000
     13211       627  IM1       H6             24.4521808724       -3.2365888512       -8.9337617583  IM1       357             0.0000000000
     13212       627  IM1       N2             25.0658630769       -1.1773922343       -9.0216962633  IM1       357             0.0000000000
     13213       627  IM1       DN2            25.0559550194       -1.1765868254       -9.0101375112  IM1       357             0.0000000000
     13214       627  IM1       H7             24.2308823969       -0.7126394194       -9.3163351696  IM1       357             0.0000000000
     13215       627  IM1       LPN21          24.8066644194       -1.0425980554       -9.0898621293  IM1       357             0.0000000000
     13216       628  IM1       C1            -28.9486724177        9.6262119906        7.5746373085  IM1       358             0.0000000000
     13217       628  IM1       DC1           -28.9804252249        9.6175118128        7.5686715215  IM1       358             0.0000000000
     13218       628  IM1       H1            -29.9968902301        9.9943470320        7.5685536735  IM1       358             0.0000000000
     13219       628  IM1       H2            -28.6130542875        9.4662818733        8.6215870814  IM1       358             0.0000000000
     13220       628  IM1       H3            -28.8727967038        8.6782895835        7.0001749636  IM1       358             0.0000000000
     13221       628  IM1       N1            -28.0871720085       10.5938771763        6.9686795979  IM1       358             0.0000000000
     13222       628  IM1       DN1           -28.0985923691       10.5777719931        6.9714860200  IM1       358             0.0000000000
     13223       628  IM1       C2            -28.4694138340       11.8032552917        6.4274416602  IM1       358             0.0000000000
     13224       628  IM1       DC2           -28.5007859329       11.7692136278        6.4364921446  IM1       358             0.0000000000
     13225       628  IM1       H4            -29.4746361701       12.2044424447        6.4657290371  IM1       358             0.0000000000
     13226       628  IM1       C3            -27.3294215024       12.3624415489        5.9285839490  IM1       358             0.0000000000
     13227       628  IM1       DC3           -27.3634018857       12.3477313928        5.9273358547  IM1       358             0.0000000000
     13228       628  IM1       H5            -27.1697593447       13.3237954752        5.4561481059  IM1       358             0.0000000000
     13229       628  IM1       C4            -26.7535865353       10.4523601761        6.7727939506  IM1       358             0.0000000000
     13230       628  IM1       DC4           -26.7823297813       10.4414805041        6.7703344546  IM1       358             0.0000000000
     13231       628  IM1       H6            -26.1744353109        9.6015847778        7.1317717804  IM1       358             0.0000000000
     13232       628  IM1       N2            -26.2645552217       11.4989141539        6.1169154973  IM1       358             0.0000000000
     13233       628  IM1       DN2           -26.2874648883       11.4925861720        6.1071306500  IM1       358             0.0000000000
     13234       628  IM1       H7            -25.3056820121       11.6616662020        5.8843774600  IM1       358             0.0000000000
     13235       628  IM1       LPN21         -25.9790757989       11.5324916396        6.0310431989  IM1       358             0.0000000000
     13236       629  IM1       C1             20.6286297618        6.6710506225       -9.0178418660  IM1       359             0.0000000000
     13237       629  IM1       DC1            20.6139588144        6.6657647382       -9.0123020587  IM1       359             0.0000000000
     13238       629  IM1       H1             20.3211699701        6.3711342930       -7.9932250245  IM1       359             0.0000000000
     13239       629  IM1       H2             21.6268479585        7.1580934877       -8.9919443535  IM1       359             0.0000000000
     13240       629  IM1       H3             20.6621663618        5.7728904776       -9.6709151015  IM1       359             0.0000000000
     13241       629  IM1       N1             19.6825250144        7.5941978966       -9.5601256565  IM1       359             0.0000000000
     13242       629  IM1       DN1            19.6796178507        7.5977296163       -9.5787079405  IM1       359             0.0000000000
     13243       629  IM1       C2             18.5536541076        8.0956060953       -8.9460785863  IM1       359             0.0000000000
     13244       629  IM1       DC2            18.5698702928        8.0804711033       -8.9560375969  IM1       359             0.0000000000
     13245       629  IM1       H4             18.2732100521        7.8856259775       -7.9213110605  IM1       359             0.0000000000
     13246       629  IM1       C3             17.9401270385        8.8754880100       -9.8795381776  IM1       359             0.0000000000
     13247       629  IM1       DC3            17.9433055881        8.8613374281       -9.8841456753  IM1       359             0.0000000000
     13248       629  IM1       H5             17.0339497918        9.4642205439       -9.8079434630  IM1       359             0.0000000000
     13249       629  IM1       C4             19.7179732155        8.0751698702      -10.8228820236  IM1       359             0.0000000000
     13250       629  IM1       DC4            19.7130023566        8.0654101286      -10.8292992461  IM1       359             0.0000000000
     13251       629  IM1       H6             20.5227182972        7.8563053917      -11.5247250927  IM1       359             0.0000000000
     13252       629  IM1       N2             18.6679436717        8.8481973136      -11.0605704936  IM1       359             0.0000000000
     13253       629  IM1       DN2            18.6705512655        8.8376521494      -11.0678530401  IM1       359             0.0000000000
     13254       629  IM1       H7             18.4617001495        9.3441129205      -11.9040936530  IM1       359             0.0000000000
     13255       629  IM1       LPN21          18.6088599009        8.9850223435      -11.3209318180  IM1       359             0.0000000000
     13256       630  IM1       C1            -12.9017771086      -12.5036765578       26.7430303103  IM1       360             0.0000000000
     13257       630  IM1       DC1           -12.9070173031      -12.5187042666       26.7473327862  IM1       360             0.0000000000
     13258       630  IM1       H1            -12.3807599041      -13.4157387672       27.1049758865  IM1       360             0.0000000000
     13259       630  IM1       H2            -13.9351370865      -12.4784188684       27.1502774169  IM1       360             0.0000000000
     13260       630  IM1       H3            -12.3314864352      -11.6071438400       27.0675586354  IM1       360             0.0000000000
     13261       630  IM1       N1            -12.9762713190      -12.5176965525       25.3119945742  IM1       360             0.0000000000
     13262       630  IM1       DN1           -12.9863849611      -12.5127683696       25.3119120931  IM1       360             0.0000000000
     13263       630  IM1       C2            -12.5037082327      -13.5304893230       24.5152243371  IM1       360             0.0000000000
     13264       630  IM1       DC2           -12.5169445287      -13.5086454243       24.5237688779  IM1       360             0.0000000000
     13265       630  IM1       H4            -11.9503778584      -14.3859079220       24.8826117585  IM1       360             0.0000000000
     13266       630  IM1       C3            -12.9313498976      -13.2545954674       23.2560038287  IM1       360             0.0000000000
     13267       630  IM1       DC3           -12.9416338728      -13.2516182299       23.2430727349  IM1       360             0.0000000000
     13268       630  IM1       H5            -12.7765260526      -13.8116397576       22.3402417220  IM1       360             0.0000000000
     13269       630  IM1       C4            -13.6737828568      -11.6634394068       24.5195413255  IM1       360             0.0000000000
     13270       630  IM1       DC4           -13.6771068297      -11.6777273709       24.5214372319  IM1       360             0.0000000000
     13271       630  IM1       H6            -14.1554772019      -10.7574340560       24.8872706583  IM1       360             0.0000000000
     13272       630  IM1       N2            -13.6744951029      -12.0873857530       23.2552360308  IM1       360             0.0000000000
     13273       630  IM1       DN2           -13.6850393282      -12.0907991767       23.2467908931  IM1       360             0.0000000000
     13274       630  IM1       H7            -14.0971132338      -11.6368103243       22.4688673523  IM1       360             0.0000000000
     13275       630  IM1       LPN21         -13.8101663359      -11.9518023140       23.0245621319  IM1       360             0.0000000000
     13276       631  IM1       C1            -28.1786235006       18.1945047754      -23.5977591054  IM1       361             0.0000000000
     13277       631  IM1       DC1           -28.1834367570       18.1865272639      -23.5912981471  IM1       361             0.0000000000
     13278       631  IM1       H1            -28.6074526457       18.7587290444      -22.7421438068  IM1       361             0.0000000000
     13279       631  IM1       H2            -28.6852875229       18.5004925905      -24.5379633521  IM1       361             0.0000000000
     13280       631  IM1       H3            -27.0894165824       18.4052025288      -23.6573891935  IM1       361             0.0000000000
     13281       631  IM1       N1            -28.3632543088       16.7888107080      -23.4028732569  IM1       361             0.0000000000
     13282       631  IM1       DN1           -28.3592265731       16.7774110974      -23.4070027986  IM1       361             0.0000000000
     13283       631  IM1       C2            -28.8165711370       16.1958458064      -22.2456954566  IM1       361             0.0000000000
     13284       631  IM1       DC2           -28.8107368429       16.2006995083      -22.2585963343  IM1       361             0.0000000000
     13285       631  IM1       H4            -29.1949768699       16.7492392683      -21.3951345959  IM1       361             0.0000000000
     13286       631  IM1       C3            -28.7236304098       14.8551226547      -22.4514070517  IM1       361             0.0000000000
     13287       631  IM1       DC3           -28.7227434932       14.8446484394      -22.4488198465  IM1       361             0.0000000000
     13288       631  IM1       H5            -29.0274409604       14.0318148838      -21.8167792366  IM1       361             0.0000000000
     13289       631  IM1       C4            -28.0117076550       15.8016196224      -24.2646871310  IM1       361             0.0000000000
     13290       631  IM1       DC4           -28.0056198857       15.8097432604      -24.2571589600  IM1       361             0.0000000000
     13291       631  IM1       H6            -27.6345989965       15.9825132398      -25.2712488822  IM1       361             0.0000000000
     13292       631  IM1       N2            -28.2129211252       14.6059748995      -23.7137423596  IM1       361             0.0000000000
     13293       631  IM1       DN2           -28.2131665066       14.6050789594      -23.7077286237  IM1       361             0.0000000000
     13294       631  IM1       H7            -28.0684772524       13.7161316953      -24.1465414349  IM1       361             0.0000000000
     13295       631  IM1       LPN21         -28.1562859502       14.3416930946      -23.8439252484  IM1       361             0.0000000000
     13296       632  IM1       C1            -28.8863340060       -4.9121173177       11.4274650990  IM1       362             0.0000000000
     13297       632  IM1       DC1           -28.8441521928       -4.9362594082       11.4232373585  IM1       362             0.0000000000
     13298       632  IM1       H1            -29.7004033158       -5.6243845630       11.6810149601  IM1       362             0.0000000000
     13299       632  IM1       H2            -27.9948275019       -5.4846218494       11.0931363460  IM1       362             0.0000000000
     13300       632  IM1       H3            -29.2428894193       -4.2245116378       10.6309805315  IM1       362             0.0000000000
     13301       632  IM1       N1            -28.5518546595       -4.1317947584       12.5821351821  IM1       362             0.0000000000
     13302       632  IM1       DN1           -28.5258605070       -4.1392621012       12.5749111103  IM1       362             0.0000000000
     13303       632  IM1       C2            -29.2034721329       -4.1512850820       13.7964664685  IM1       362             0.0000000000
     13304       632  IM1       DC2           -29.1537268409       -4.1611925412       13.7846816248  IM1       362             0.0000000000
     13305       632  IM1       H4            -30.1343729814       -4.6777113737       13.9673113385  IM1       362             0.0000000000
     13306       632  IM1       C3            -28.4964992925       -3.3229403769       14.6129130481  IM1       362             0.0000000000
     13307       632  IM1       DC3           -28.4764568175       -3.3300972924       14.6281470496  IM1       362             0.0000000000
     13308       632  IM1       H5            -28.6748088101       -3.0388747038       15.6426709853  IM1       362             0.0000000000
     13309       632  IM1       C4            -27.4770396790       -3.3122698885       12.7008348671  IM1       362             0.0000000000
     13310       632  IM1       DC4           -27.4696239803       -3.3345860364       12.6960992687  IM1       362             0.0000000000
     13311       632  IM1       H6            -26.7951162287       -3.0830549846       11.8819692275  IM1       362             0.0000000000
     13312       632  IM1       N2            -27.3954198329       -2.8231909455       13.9354179050  IM1       362             0.0000000000
     13313       632  IM1       DN2           -27.3877665334       -2.8327758912       13.9362472119  IM1       362             0.0000000000
     13314       632  IM1       H7            -26.7064561098       -2.1858096270       14.2804889751  IM1       362             0.0000000000
     13315       632  IM1       LPN21         -27.1789409224       -2.6422181494       14.0373282989  IM1       362             0.0000000000
     13316       633  IM1       C1             -9.7184038594      -28.2140389886      -21.2112534036  IM1       363             0.0000000000
     13317       633  IM1       DC1            -9.7205332661      -28.2281563785      -21.1902628151  IM1       363             0.0000000000
     13318       633  IM1       H1             -8.9213470123      -27.9318769611      -20.4905551496  IM1       363             0.0000000000
     13319       633  IM1       H2            -10.2812331600      -29.0940090018      -20.8328396672  IM1       363             0.0000000000
     13320       633  IM1       H3            -10.3976502396      -27.3477885625      -21.3614384695  IM1       363             0.0000000000
     13321       633  IM1       N1             -9.1346795875      -28.5523124064      -22.4721623959  IM1       363             0.0000000000
     13322       633  IM1       DN1            -9.1525449989      -28.5610320582      -22.4655851696  IM1       363             0.0000000000
     13323       633  IM1       C2             -7.7932481922      -28.5348672921      -22.7842281525  IM1       363             0.0000000000
     13324       633  IM1       DC2            -7.8181470143      -28.5432303151      -22.7546225870  IM1       363             0.0000000000
     13325       633  IM1       H4             -7.0143947036      -28.2075908875      -22.1066099708  IM1       363             0.0000000000
     13326       633  IM1       C3             -7.7078675030      -28.9319437434      -24.0858170348  IM1       363             0.0000000000
     13327       633  IM1       DC3            -7.7116377575      -28.9349802153      -24.0660955761  IM1       363             0.0000000000
     13328       633  IM1       H5             -6.8428467992      -29.0276233771      -24.7303894441  IM1       363             0.0000000000
     13329       633  IM1       C4             -9.8123003723      -28.9618914747      -23.5716034879  IM1       363             0.0000000000
     13330       633  IM1       DC4            -9.8168201466      -28.9620956593      -23.5559190442  IM1       363             0.0000000000
     13331       633  IM1       H6            -10.8977170506      -29.0513882781      -23.6158861800  IM1       363             0.0000000000
     13332       633  IM1       N2             -8.9751660614      -29.2143523330      -24.5713459547  IM1       363             0.0000000000
     13333       633  IM1       DN2            -8.9770979719      -29.2156621202      -24.5606428245  IM1       363             0.0000000000
     13334       633  IM1       H7             -9.2174689693      -29.5043411334      -25.4971946446  IM1       363             0.0000000000
     13335       633  IM1       LPN21          -9.0540875816      -29.3124213760      -24.8436580118  IM1       363             0.0000000000
     13336       634  IM1       C1              9.3951995811      -16.2081389542      -25.3031273158  IM1       364             0.0000000000
     13337       634  IM1       DC1             9.4059226334      -16.1741562050      -25.2962826349  IM1       364             0.0000000000
     13338       634  IM1       H1              8.3073937105      -16.2136362624      -25.0773637915  IM1       364             0.0000000000
     13339       634  IM1       H2              9.9728211530      -16.2106322234      -24.3540919612  IM1       364             0.0000000000
     13340       634  IM1       H3              9.6397413793      -17.1142555844      -25.8976632369  IM1       364             0.0000000000
     13341       634  IM1       N1              9.7385521893      -15.0442687543      -26.0699482518  IM1       364             0.0000000000
     13342       634  IM1       DN1             9.7526114194      -15.0238893690      -26.0609525147  IM1       364             0.0000000000
     13343       634  IM1       C2              8.8763525111      -14.0271427197      -26.4245657488  IM1       364             0.0000000000
     13344       634  IM1       DC2             8.9086074216      -14.0216810114      -26.3898638465  IM1       364             0.0000000000
     13345       634  IM1       H4              7.8068205656      -14.0615241030      -26.2578074232  IM1       364             0.0000000000
     13346       634  IM1       C3              9.6302391503      -13.1126473811      -27.0963917373  IM1       364             0.0000000000
     13347       634  IM1       DC3             9.6423917911      -13.1005007156      -27.0890565339  IM1       364             0.0000000000
     13348       634  IM1       H5              9.3369750817      -12.1846557722      -27.5714883174  IM1       364             0.0000000000
     13349       634  IM1       C4             10.9773628819      -14.7109777406      -26.5154102444  IM1       364             0.0000000000
     13350       634  IM1       DC4            10.9705451136      -14.7042577204      -26.5049786927  IM1       364             0.0000000000
     13351       634  IM1       H6             11.8565105004      -15.3407051143      -26.3788712376  IM1       364             0.0000000000
     13352       634  IM1       N2             10.9503604420      -13.5312762300      -27.1379560951  IM1       364             0.0000000000
     13353       634  IM1       DN2            10.9577812238      -13.5209839651      -27.1367799852  IM1       364             0.0000000000
     13354       634  IM1       H7             11.7225796247      -13.0653837385      -27.5699534583  IM1       364             0.0000000000
     13355       634  IM1       LPN21          11.1868131239      -13.3921683715      -27.2593609258  IM1       364             0.0000000000
     13356       635  IM1       C1            -21.7139129193      -21.9849837112      -10.5928080624  IM1       365             0.0000000000
     13357       635  IM1       DC1           -21.7321764366      -21.9861141874      -10.5898034675  IM1       365             0.0000000000
     13358       635  IM1       H1            -22.6105571225      -22.6280982536      -10.7222447596  IM1       365             0.0000000000
     13359       635  IM1       H2            -21.6251633938      -21.2800451799      -11.4469194069  IM1       365             0.0000000000
     13360       635  IM1       H3            -21.7843519137      -21.4199030779       -9.6388462041  IM1       365             0.0000000000
     13361       635  IM1       N1            -20.5397155449      -22.7919815008      -10.5615316069  IM1       365             0.0000000000
     13362       635  IM1       DN1           -20.5447173190      -22.7740324558      -10.5628317931  IM1       365             0.0000000000
     13363       635  IM1       C2            -20.5004316367      -24.1678673938      -10.5382533026  IM1       365             0.0000000000
     13364       635  IM1       DC2           -20.5142205525      -24.1306960421      -10.5362296764  IM1       365             0.0000000000
     13365       635  IM1       H4            -21.3673519732      -24.8098524119      -10.6341353567  IM1       365             0.0000000000
     13366       635  IM1       C3            -19.1857861486      -24.4999438711      -10.4150391078  IM1       365             0.0000000000
     13367       635  IM1       DC3           -19.1994018727      -24.4912870091      -10.4155256363  IM1       365             0.0000000000
     13368       635  IM1       H5            -18.7117074766      -25.4732844139      -10.3877151152  IM1       365             0.0000000000
     13369       635  IM1       C4            -19.2685512643      -22.3346643689      -10.4551781692  IM1       365             0.0000000000
     13370       635  IM1       DC4           -19.2871757380      -22.3358139280      -10.4554619598  IM1       365             0.0000000000
     13371       635  IM1       H6            -19.0028343303      -21.2775499315      -10.4532868386  IM1       365             0.0000000000
     13372       635  IM1       N2            -18.4154185609      -23.3491268509      -10.3665255794  IM1       365             0.0000000000
     13373       635  IM1       DN2           -18.4243079772      -23.3495510995      -10.3679994999  IM1       365             0.0000000000
     13374       635  IM1       H7            -17.4201339753      -23.2879584894      -10.2912459263  IM1       365             0.0000000000
     13375       635  IM1       LPN21         -18.1175292814      -23.3240551959      -10.3413583527  IM1       365             0.0000000000
     13376       636  BUTH      C1             14.4332087280      -20.3150202016      -11.7266154064  BUTH      1               0.0000000000
     13377       636  BUTH      DC1            14.4271290427      -20.2900540351      -11.7489888371  BUTH      1               0.0000000000
     13378       636  BUTH      C2             13.7995840113      -19.4357867032      -12.7966173974  BUTH      1               0.0000000000
     13379       636  BUTH      DC2            13.7191585902      -19.4893163583      -12.8154439990  BUTH      1               0.0000000000
     13380       636  BUTH      C3             14.7959745616      -18.3997532459      -13.3716415513  BUTH      1               0.0000000000
     13381       636  BUTH      DC3            14.7699875999      -18.4091484548      -13.3255682909  BUTH      1               0.0000000000
     13382       636  BUTH      C4             15.4762894944      -17.6120263272      -12.4882882774  BUTH      1               0.0000000000
     13383       636  BUTH      DC4            15.4408521395      -17.6261149990      -12.4951586671  BUTH      1               0.0000000000
     13384       636  BUTH      O1             16.6531146399      -17.9322390751      -12.3026708308  BUTH      1               0.0000000000
     13385       636  BUTH      DO1            16.6089037526      -17.8924480708      -12.3075876489  BUTH      1               0.0000000000
     13386       636  BUTH      O2             15.1301254965      -16.4324469486      -12.2087184099  BUTH      1               0.0000000000
     13387       636  BUTH      DO2            15.0871087415      -16.4422482506      -12.2172074597  BUTH      1               0.0000000000
     13388       636  BUTH      H1             15.2991029976      -20.8783178447      -12.1355700239  BUTH      1               0.0000000000
     13389       636  BUTH      H2             14.8174549046      -19.6951880839      -10.8884722071  BUTH      1               0.0000000000
     13390       636  BUTH      H3             13.7077480566      -21.0454097434      -11.3088129028  BUTH      1               0.0000000000
     13391       636  BUTH      H4             12.9300648964      -18.9096928140      -12.3477491205  BUTH      1               0.0000000000
     13392       636  BUTH      H5             13.4137443279      -20.0729155505      -13.6209447417  BUTH      1               0.0000000000
     13393       636  BUTH      H6             14.2233423521      -17.7830087898      -14.0969274459  BUTH      1               0.0000000000
     13394       636  BUTH      H7             15.4774856222      -18.9928077017      -14.0182868071  BUTH      1               0.0000000000
     13395       636  BUTH      H8             15.9989154535      -16.0910349214      -11.9450105417  BUTH      1               0.0000000000
     13396       636  BUTH      H9             17.1551892697      -17.3040074372      -11.7621090163  BUTH      1               0.0000000000
     13397       636  BUTH      LPO11          16.7328778456      -18.2125941614      -12.4964202994  BUTH      1               0.0000000000
     13398       636  BUTH      LPO12          16.8017364153      -17.7140272754      -12.0728988169  BUTH      1               0.0000000000
     13399       636  BUTH      LPO21          15.0901940999      -16.2736573554      -12.5180585926  BUTH      1               0.0000000000
     13400       636  BUTH      LPO22          14.9729998471      -16.4552916513      -11.8968055216  BUTH      1               0.0000000000
     13401       637  BUTH      C1            -25.6863019592       16.2000384344       -8.6170928616  BUTH      2               0.0000000000
     13402       637  BUTH      DC1           -25.6689543923       16.1768935125       -8.6179347010  BUTH      2               0.0000000000
     13403       637  BUTH      C2            -24.4667420556       15.8421432790       -7.7727903309  BUTH      2               0.0000000000
     13404       637  BUTH      DC2           -24.5016230998       15.8726911457       -7.6832509975  BUTH      2               0.0000000000
     13405       637  BUTH      C3            -23.2117502148       15.5447428397       -8.6249606194  BUTH      2               0.0000000000
     13406       637  BUTH      DC3           -23.2614176619       15.5350753117       -8.6133695657  BUTH      2               0.0000000000
     13407       637  BUTH      C4            -23.2875798005       14.5860110313       -9.5934602017  BUTH      2               0.0000000000
     13408       637  BUTH      DC4           -23.3049862394       14.6041812062       -9.5561862298  BUTH      2               0.0000000000
     13409       637  BUTH      O1            -23.6893145852       14.9650634384      -10.7002166201  BUTH      2               0.0000000000
     13410       637  BUTH      DO1           -23.6786607636       14.9307805428      -10.6669837483  BUTH      2               0.0000000000
     13411       637  BUTH      O2            -22.9456837315       13.3892314560       -9.4152398283  BUTH      2               0.0000000000
     13412       637  BUTH      DO2           -22.9699982292       13.4039934190       -9.3809235372  BUTH      2               0.0000000000
     13413       637  BUTH      H1            -25.4607533006       17.0632209951       -9.2791839954  BUTH      2               0.0000000000
     13414       637  BUTH      H2            -25.9785659225       15.3503891057       -9.2705443096  BUTH      2               0.0000000000
     13415       637  BUTH      H3            -26.5582573973       16.4710378555       -7.9841836835  BUTH      2               0.0000000000
     13416       637  BUTH      H4            -24.7057656305       14.9495971943       -7.1559028061  BUTH      2               0.0000000000
     13417       637  BUTH      H5            -24.2429865799       16.6888134194       -7.0891207028  BUTH      2               0.0000000000
     13418       637  BUTH      H6            -22.3946656920       15.3067941705       -7.9107657483  BUTH      2               0.0000000000
     13419       637  BUTH      H7            -22.9127668797       16.5300640449       -9.0421800914  BUTH      2               0.0000000000
     13420       637  BUTH      H8            -22.7345735907       13.1300517106      -10.3258211635  BUTH      2               0.0000000000
     13421       637  BUTH      H9            -23.6461242966       14.2873335209      -11.3914313175  BUTH      2               0.0000000000
     13422       637  BUTH      LPO11         -23.7598714464       15.3077545771      -10.6910235349  BUTH      2               0.0000000000
     13423       637  BUTH      LPO12         -23.6965159055       14.6957401708      -10.9236290605  BUTH      2               0.0000000000
     13424       637  BUTH      LPO21         -22.6233926297       13.4071100236       -9.2799298044  BUTH      2               0.0000000000
     13425       637  BUTH      LPO22         -23.2462726727       13.2157708451       -9.3698778967  BUTH      2               0.0000000000
     13426       638  BUTH      C1             12.6175696588       20.2166382566       19.5643452535  BUTH      3               0.0000000000
     13427       638  BUTH      DC1            12.6495905871       20.2146179393       19.5407536253  BUTH      3               0.0000000000
     13428       638  BUTH      C2             13.8649686537       19.4641983614       19.1083186710  BUTH      3               0.0000000000
     13429       638  BUTH      DC2            13.8994152957       19.4507205115       19.1943823182  BUTH      3               0.0000000000
     13430       638  BUTH      C3             14.2706643752       19.8075475273       17.6589180095  BUTH      3               0.0000000000
     13431       638  BUTH      DC3            14.2332658557       19.8027381616       17.6812878041  BUTH      3               0.0000000000
     13432       638  BUTH      C4             13.2745832502       19.6753444725       16.7369976723  BUTH      3               0.0000000000
     13433       638  BUTH      DC4            13.2963082938       19.6689480114       16.7595286719  BUTH      3               0.0000000000
     13434       638  BUTH      O1             12.8799362082       20.7267053524       16.2260573677  BUTH      3               0.0000000000
     13435       638  BUTH      DO1            12.8857205315       20.6579124531       16.2086696616  BUTH      3               0.0000000000
     13436       638  BUTH      O2             13.1458853206       18.6772434356       16.0356804808  BUTH      3               0.0000000000
     13437       638  BUTH      DO2            13.1645504799       18.6769870250       16.0431509126  BUTH      3               0.0000000000
     13438       638  BUTH      H1             12.7642308078       21.3165643860       19.5098107013  BUTH      3               0.0000000000
     13439       638  BUTH      H2             11.7396713697       19.9708331855       18.9293685137  BUTH      3               0.0000000000
     13440       638  BUTH      H3             12.3533562763       19.9574030961       20.6118706325  BUTH      3               0.0000000000
     13441       638  BUTH      H4             13.6653001057       18.3727940760       19.1656785585  BUTH      3               0.0000000000
     13442       638  BUTH      H5             14.7138665609       19.6870853394       19.7895049447  BUTH      3               0.0000000000
     13443       638  BUTH      H6             15.1325514207       19.1483074502       17.4204347973  BUTH      3               0.0000000000
     13444       638  BUTH      H7             14.7183316523       20.8235467448       17.6996684566  BUTH      3               0.0000000000
     13445       638  BUTH      H8             12.5858188473       19.1008022565       15.3664843431  BUTH      3               0.0000000000
     13446       638  BUTH      H9             12.2463931066       20.6154219469       15.5013504325  BUTH      3               0.0000000000
     13447       638  BUTH      LPO11          13.0576295939       20.9979231388       16.3578373854  BUTH      3               0.0000000000
     13448       638  BUTH      LPO12          12.6256606698       20.6595065272       15.9951282260  BUTH      3               0.0000000000
     13449       638  BUTH      LPO21          13.4487089591       18.6479117954       15.8626559193  BUTH      3               0.0000000000
     13450       638  BUTH      LPO22          12.9125603222       18.4775286418       16.2035299557  BUTH      3               0.0000000000
     13451       639  BUTH      C1             11.3253199198      -26.7298673000       21.1850088908  BUTH      4               0.0000000000
     13452       639  BUTH      DC1            11.3583154402      -26.7590930708       21.2005500918  BUTH      4               0.0000000000
     13453       639  BUTH      C2             11.4328707640      -25.6856696753       20.0877288802  BUTH      4               0.0000000000
     13454       639  BUTH      DC2            11.4226022978      -25.6353662370       20.1820619321  BUTH      4               0.0000000000
     13455       639  BUTH      C3             11.1409118635      -26.2526216998       18.6786407535  BUTH      4               0.0000000000
     13456       639  BUTH      DC3            11.1726828707      -26.2604933289       18.7409272091  BUTH      4               0.0000000000
     13457       639  BUTH      C4             11.8793988947      -27.3065255173       18.2261037333  BUTH      4               0.0000000000
     13458       639  BUTH      DC4            11.8757611952      -27.2689698988       18.2442613673  BUTH      4               0.0000000000
     13459       639  BUTH      O1             11.3693777039      -28.4193625051       18.3578061112  BUTH      4               0.0000000000
     13460       639  BUTH      DO1            11.4217389957      -28.3762051514       18.3459291678  BUTH      4               0.0000000000
     13461       639  BUTH      O2             13.0299951951      -27.2268126961       17.7361864183  BUTH      4               0.0000000000
     13462       639  BUTH      DO2            13.0247874738      -27.2008108641       17.7422500172  BUTH      4               0.0000000000
     13463       639  BUTH      H1             10.2974612890      -27.1483299746       21.2371301582  BUTH      4               0.0000000000
     13464       639  BUTH      H2             11.9998272056      -27.5761785203       20.9337754530  BUTH      4               0.0000000000
     13465       639  BUTH      H3             11.5876165556      -26.3048148377       22.1774059278  BUTH      4               0.0000000000
     13466       639  BUTH      H4             12.4608367492      -25.2642449406       20.0905795669  BUTH      4               0.0000000000
     13467       639  BUTH      H5             10.7255286589      -24.8549791718       20.2973510028  BUTH      4               0.0000000000
     13468       639  BUTH      H6             11.2284469426      -25.3956280092       17.9770565289  BUTH      4               0.0000000000
     13469       639  BUTH      H7             10.0521774544      -26.4739316751       18.6791721271  BUTH      4               0.0000000000
     13470       639  BUTH      H8             13.1619625075      -28.1689686720       17.5469068750  BUTH      4               0.0000000000
     13471       639  BUTH      H9             11.8968603958      -29.1431397718       17.9878473595  BUTH      4               0.0000000000
     13472       639  BUTH      LPO11          11.0551864905      -28.3898912119       18.5091841952  BUTH      4               0.0000000000
     13473       639  BUTH      LPO12          11.5843929386      -28.6652300959       18.2320381637  BUTH      4               0.0000000000
     13474       639  BUTH      LPO21          12.9824800460      -27.1019720662       17.4126788793  BUTH      4               0.0000000000
     13475       639  BUTH      LPO22          13.2429788933      -27.1856584945       18.0108576326  BUTH      4               0.0000000000
     13476       640  BUTH      C1             20.9917036612        4.5532766016       12.1422781982  BUTH      5               0.0000000000
     13477       640  BUTH      DC1            21.0091597390        4.5790943900       12.1418276496  BUTH      5               0.0000000000
     13478       640  BUTH      C2             22.2198137990        4.4391805578       13.0323105012  BUTH      5               0.0000000000
     13479       640  BUTH      DC2            22.1881908989        4.3733730628       13.0528806069  BUTH      5               0.0000000000
     13480       640  BUTH      C3             22.7767839922        5.8266736952       13.4053059564  BUTH      5               0.0000000000
     13481       640  BUTH      DC3            22.7704239454        5.8274639428       13.3592350796  BUTH      5               0.0000000000
     13482       640  BUTH      C4             23.0566090471        6.6524471015       12.3551729786  BUTH      5               0.0000000000
     13483       640  BUTH      DC4            23.0371536063        6.6510290349       12.3529309067  BUTH      5               0.0000000000
     13484       640  BUTH      O1             22.3481282251        7.6725389986       12.2612562100  BUTH      5               0.0000000000
     13485       640  BUTH      DO1            22.3914808300        7.6826790759       12.2393658419  BUTH      5               0.0000000000
     13486       640  BUTH      O2             24.1950368286        6.7092336086       11.8605972733  BUTH      5               0.0000000000
     13487       640  BUTH      DO2            24.1718496823        6.7061426570       11.8609001479  BUTH      5               0.0000000000
     13488       640  BUTH      H1             20.1490812476        5.0324810157       12.6851148181  BUTH      5               0.0000000000
     13489       640  BUTH      H2             21.2059716042        5.1815243080       11.2513713183  BUTH      5               0.0000000000
     13490       640  BUTH      H3             20.6581410695        3.5547139696       11.7874124941  BUTH      5               0.0000000000
     13491       640  BUTH      H4             23.0217228787        3.8760808634       12.5086870079  BUTH      5               0.0000000000
     13492       640  BUTH      H5             21.9774536076        3.8665869045       13.9530270948  BUTH      5               0.0000000000
     13493       640  BUTH      H6             23.6926524473        5.6069442121       13.9945639044  BUTH      5               0.0000000000
     13494       640  BUTH      H7             22.0649285136        6.2455491524       14.1483578583  BUTH      5               0.0000000000
     13495       640  BUTH      H8             24.2861404518        7.6673866823       11.7400036703  BUTH      5               0.0000000000
     13496       640  BUTH      H9             22.6141930832        8.2882337461       11.5619061766  BUTH      5               0.0000000000
     13497       640  BUTH      LPO11          22.1142120911        7.6801999292       12.5214956236  BUTH      5               0.0000000000
     13498       640  BUTH      LPO12          22.4458614772        7.8609582583       11.9829642876  BUTH      5               0.0000000000
     13499       640  BUTH      LPO21          24.4121958924        6.6594477623       12.1305293213  BUTH      5               0.0000000000
     13500       640  BUTH      LPO22          24.1530387505        6.6082693217       11.5281181398  BUTH      5               0.0000000000
     13501       641  BUTH      C1             -4.7199271782      -17.8730244785        2.0313929570  BUTH      6               0.0000000000
     13502       641  BUTH      DC1            -4.7101564505      -17.8157616868        2.0257357427  BUTH      6               0.0000000000
     13503       641  BUTH      C2             -5.2015340219      -16.4729670346        1.6725200360  BUTH      6               0.0000000000
     13504       641  BUTH      DC2            -5.2900562298      -16.4897666059        1.6537909881  BUTH      6               0.0000000000
     13505       641  BUTH      C3             -4.0302731442      -15.5123273397        1.3580387848  BUTH      6               0.0000000000
     13506       641  BUTH      DC3            -4.0217210328      -15.5479992281        1.4262043341  BUTH      6               0.0000000000
     13507       641  BUTH      C4             -3.0993370262      -15.3596104233        2.3311025936  BUTH      6               0.0000000000
     13508       641  BUTH      DC4            -3.1106137120      -15.3551132135        2.3440608120  BUTH      6               0.0000000000
     13509       641  BUTH      O1             -2.0387023787      -15.9870017681        2.2197133929  BUTH      6               0.0000000000
     13510       641  BUTH      DO1            -2.0463188260      -15.9300529667        2.2619406631  BUTH      6               0.0000000000
     13511       641  BUTH      O2             -3.0701369402      -14.4088563417        3.1079940199  BUTH      6               0.0000000000
     13512       641  BUTH      DO2            -3.0844484973      -14.4021998763        3.1146844192  BUTH      6               0.0000000000
     13513       641  BUTH      H1             -4.0822352060      -18.2927293126        1.2242264299  BUTH      6               0.0000000000
     13514       641  BUTH      H2             -4.1113216335      -17.8723231462        2.9608658183  BUTH      6               0.0000000000
     13515       641  BUTH      H3             -5.5678537698      -18.5742483401        2.1851023947  BUTH      6               0.0000000000
     13516       641  BUTH      H4             -5.8180536521      -16.0598405013        2.4992914765  BUTH      6               0.0000000000
     13517       641  BUTH      H5             -5.8851162541      -16.5345240933        0.7988799151  BUTH      6               0.0000000000
     13518       641  BUTH      H6             -4.4867965017      -14.5423298938        1.0664699610  BUTH      6               0.0000000000
     13519       641  BUTH      H7             -3.5690015570      -15.8796963041        0.4164499324  BUTH      6               0.0000000000
     13520       641  BUTH      H8             -2.1431843946      -14.5458543575        3.3587738479  BUTH      6               0.0000000000
     13521       641  BUTH      H9             -1.3661392987      -15.7616810796        2.8799031314  BUTH      6               0.0000000000
     13522       641  BUTH      LPO11          -2.0426718246      -16.1776928567        1.9262493368  BUTH      6               0.0000000000
     13523       641  BUTH      LPO12          -1.8295072425      -15.9177066966        2.4916243858  BUTH      6               0.0000000000
     13524       641  BUTH      LPO21          -3.0460372002      -14.1249764465        2.9046927467  BUTH      6               0.0000000000
     13525       641  BUTH      LPO22          -3.2370209769      -14.5197331818        3.3949714487  BUTH      6               0.0000000000
     13526       642  BUTH      C1             23.7502343103       21.3032536000      -18.4026861615  BUTH      7               0.0000000000
     13527       642  BUTH      DC1            23.6867104246       21.2959292505      -18.3392163557  BUTH      7               0.0000000000
     13528       642  BUTH      C2             23.4615710057       22.0269940868      -17.0935070634  BUTH      7               0.0000000000
     13529       642  BUTH      DC2            23.4944561863       22.0197709825      -17.0385791874  BUTH      7               0.0000000000
     13530       642  BUTH      C3             22.1140710272       21.5989973804      -16.4715047497  BUTH      7               0.0000000000
     13531       642  BUTH      DC3            22.0580208453       21.5884954006      -16.4993905911  BUTH      7               0.0000000000
     13532       642  BUTH      C4             21.0468102912       21.6437053107      -17.3213856068  BUTH      7               0.0000000000
     13533       642  BUTH      DC4            21.0177519575       21.6253498832      -17.3154071526  BUTH      7               0.0000000000
     13534       642  BUTH      O1             20.4827880724       20.5439404765      -17.5181138023  BUTH      7               0.0000000000
     13535       642  BUTH      DO1            20.4310485746       20.5570460904      -17.5175992451  BUTH      7               0.0000000000
     13536       642  BUTH      O2             20.2543770247       22.6212795459      -17.3079194719  BUTH      7               0.0000000000
     13537       642  BUTH      DO2            20.2369352305       22.6100425392      -17.2848934145  BUTH      7               0.0000000000
     13538       642  BUTH      H1             23.7629467858       20.1998716439      -18.2734280749  BUTH      7               0.0000000000
     13539       642  BUTH      H2             23.0039414694       21.5492307736      -19.1880925699  BUTH      7               0.0000000000
     13540       642  BUTH      H3             24.7406349180       21.6044429044      -18.8060627091  BUTH      7               0.0000000000
     13541       642  BUTH      H4             23.4488920790       23.1184255562      -17.3007209441  BUTH      7               0.0000000000
     13542       642  BUTH      H5             24.2886693584       21.8470883453      -16.3738799095  BUTH      7               0.0000000000
     13543       642  BUTH      H6             21.9842132899       22.2781764979      -15.6019222669  BUTH      7               0.0000000000
     13544       642  BUTH      H7             22.3104671213       20.6033322502      -16.0193979884  BUTH      7               0.0000000000
     13545       642  BUTH      H8             19.6489057860       22.3324521792      -18.0085501387  BUTH      7               0.0000000000
     13546       642  BUTH      H9             19.6705842167       20.6013994938      -18.0434559367  BUTH      7               0.0000000000
     13547       642  BUTH      LPO11          20.6435135949       20.2925577298      -17.3351547328  BUTH      7               0.0000000000
     13548       642  BUTH      LPO12          20.2141659726       20.5849399129      -17.7387066710  BUTH      7               0.0000000000
     13549       642  BUTH      LPO21          20.0534083710       22.5710862927      -17.0257985093  BUTH      7               0.0000000000
     13550       642  BUTH      LPO22          20.4248091911       22.8783140323      -17.4734070832  BUTH      7               0.0000000000
     13551       643  BUTH      C1              2.7016983312      -14.7429912365        4.9325845738  BUTH      8               0.0000000000
     13552       643  BUTH      DC1             2.7947442394      -14.6866047366        4.9254948207  BUTH      8               0.0000000000
     13553       643  BUTH      C2              3.7159584362      -14.0153330027        4.0730014513  BUTH      8               0.0000000000
     13554       643  BUTH      DC2             3.7318828834      -14.0043043354        4.0009755331  BUTH      8               0.0000000000
     13555       643  BUTH      C3              5.1313208372      -14.1472054966        4.6553063217  BUTH      8               0.0000000000
     13556       643  BUTH      DC3             5.1630118513      -14.1237337538        4.6968673727  BUTH      8               0.0000000000
     13557       643  BUTH      C4              5.2826419124      -13.7906309737        5.9604962352  BUTH      8               0.0000000000
     13558       643  BUTH      DC4             5.2963553780      -13.7790663834        5.9582105283  BUTH      8               0.0000000000
     13559       643  BUTH      O1              5.8741829103      -14.6353969129        6.6429373125  BUTH      8               0.0000000000
     13560       643  BUTH      DO1             5.8997370785      -14.5541389964        6.6524812168  BUTH      8               0.0000000000
     13561       643  BUTH      O2              5.7058039282      -12.6739879596        6.2543685648  BUTH      8               0.0000000000
     13562       643  BUTH      DO2             5.7316217577      -12.6635417893        6.2344087719  BUTH      8               0.0000000000
     13563       643  BUTH      H1              2.9159944153      -15.8324594754        4.9707571509  BUTH      8               0.0000000000
     13564       643  BUTH      H2              2.6766966518      -14.3623061140        5.9760282733  BUTH      8               0.0000000000
     13565       643  BUTH      H3              1.6756547476      -14.6367946130        4.5199372160  BUTH      8               0.0000000000
     13566       643  BUTH      H4              3.4371660475      -12.9416583842        4.0112064880  BUTH      8               0.0000000000
     13567       643  BUTH      H5              3.6929048407      -14.4256509342        3.0408053807  BUTH      8               0.0000000000
     13568       643  BUTH      H6              5.7116077675      -13.4725849110        3.9901182701  BUTH      8               0.0000000000
     13569       643  BUTH      H7              5.4663357264      -15.1750624091        4.3991887842  BUTH      8               0.0000000000
     13570       643  BUTH      H8              6.0796463395      -12.9764427489        7.0967835171  BUTH      8               0.0000000000
     13571       643  BUTH      H9              6.0568838345      -14.3642229011        7.5551028828  BUTH      8               0.0000000000
     13572       643  BUTH      LPO11           5.9608338083      -14.9103240262        6.4444260931  BUTH      8               0.0000000000
     13573       643  BUTH      LPO12           5.9020547253      -14.5240170222        6.9735695582  BUTH      8               0.0000000000
     13574       643  BUTH      LPO21           5.9940102303      -12.6304973994        6.0606014402  BUTH      8               0.0000000000
     13575       643  BUTH      LPO22           5.4253545648      -12.4942842178        6.3618614471  BUTH      8               0.0000000000
     13576       644  BUTH      C1            -16.8534878898       28.9474321937       -5.5698880604  BUTH      9               0.0000000000
     13577       644  BUTH      DC1           -16.9213307245       28.9417342880       -5.5543128801  BUTH      9               0.0000000000
     13578       644  BUTH      C2            -17.5981986716       28.9481464372       -4.2415619478  BUTH      9               0.0000000000
     13579       644  BUTH      DC2           -17.5701068423       28.9981996175       -4.1878522342  BUTH      9               0.0000000000
     13580       644  BUTH      C3            -18.5234856148       27.7226697775       -4.1519174645  BUTH      9               0.0000000000
     13581       644  BUTH      DC3           -18.5493659850       27.7412477321       -4.1910831248  BUTH      9               0.0000000000
     13582       644  BUTH      C4            -19.3299994159       27.6014592491       -5.2395863294  BUTH      9               0.0000000000
     13583       644  BUTH      DC4           -19.3366183482       27.6131955469       -5.2364525966  BUTH      9               0.0000000000
     13584       644  BUTH      O1            -19.1455041785       26.6195371431       -5.9683418239  BUTH      9               0.0000000000
     13585       644  BUTH      DO1           -19.2198346733       26.6566280294       -5.9624047871  BUTH      9               0.0000000000
     13586       644  BUTH      O2            -20.4923372422       27.9864294036       -5.2417748951  BUTH      9               0.0000000000
     13587       644  BUTH      DO2           -20.5008744234       27.9954736661       -5.2312254391  BUTH      9               0.0000000000
     13588       644  BUTH      H1            -16.3578444284       27.9675274254       -5.7385451234  BUTH      9               0.0000000000
     13589       644  BUTH      H2            -17.5309525673       29.1300980271       -6.4312798435  BUTH      9               0.0000000000
     13590       644  BUTH      H3            -16.0451924672       29.7092061533       -5.5959638259  BUTH      9               0.0000000000
     13591       644  BUTH      H4            -18.1983129219       29.8784783092       -4.1484679340  BUTH      9               0.0000000000
     13592       644  BUTH      H5            -16.8665648158       28.9220237899       -3.4058882625  BUTH      9               0.0000000000
     13593       644  BUTH      H6            -19.0897680366       27.8220221951       -3.2012470083  BUTH      9               0.0000000000
     13594       644  BUTH      H7            -17.8507873182       26.8548975292       -3.9823022326  BUTH      9               0.0000000000
     13595       644  BUTH      H8            -20.7662166440       27.3356254093       -5.9068645402  BUTH      9               0.0000000000
     13596       644  BUTH      H9            -19.7974242537       26.5129852325       -6.6772902760  BUTH      9               0.0000000000
     13597       644  BUTH      LPO11         -18.8837037835       26.4244163194       -5.8422925585  BUTH      9               0.0000000000
     13598       644  BUTH      LPO12         -19.3715863888       26.6245583429       -6.2354777851  BUTH      9               0.0000000000
     13599       644  BUTH      LPO21         -20.6338579938       27.8538862735       -4.9503916500  BUTH      9               0.0000000000
     13600       644  BUTH      LPO22         -20.4910234649       28.2824272948       -5.4285462056  BUTH      9               0.0000000000
     13601       645  BUTH      C1            -22.8548745970       -0.3318272340       22.1720035532  BUTH      10              0.0000000000
     13602       645  BUTH      DC1           -22.8693452103       -0.3366583651       22.1686536055  BUTH      10              0.0000000000
     13603       645  BUTH      C2            -21.7545823267        0.1208103531       23.1249577811  BUTH      10              0.0000000000
     13604       645  BUTH      DC2           -21.7617908235        0.0275843841       23.1401883918  BUTH      10              0.0000000000
     13605       645  BUTH      C3            -21.7771222637        1.6445160334       23.3895070217  BUTH      10              0.0000000000
     13606       645  BUTH      DC3           -21.7732859052        1.6046694949       23.3660758894  BUTH      10              0.0000000000
     13607       645  BUTH      C4            -21.8574128496        2.5008536124       22.3331713593  BUTH      10              0.0000000000
     13608       645  BUTH      DC4           -21.8533301000        2.4590780975       22.3579761606  BUTH      10              0.0000000000
     13609       645  BUTH      O1            -22.9948995161        2.9024577152       22.0768565767  BUTH      10              0.0000000000
     13610       645  BUTH      DO1           -22.9292762098        2.9128554867       22.0701871625  BUTH      10              0.0000000000
     13611       645  BUTH      O2            -20.9334361854        3.2257292299       22.0159481863  BUTH      10              0.0000000000
     13612       645  BUTH      DO2           -20.9352995036        3.1969150180       22.0444639320  BUTH      10              0.0000000000
     13613       645  BUTH      H1            -23.8545768963       -0.0923983901       22.5934180066  BUTH      10              0.0000000000
     13614       645  BUTH      H2            -22.7607067510        0.1990696931       21.2006118351  BUTH      10              0.0000000000
     13615       645  BUTH      H3            -22.7890570851       -1.4194061866       21.9548375411  BUTH      10              0.0000000000
     13616       645  BUTH      H4            -20.7662880856       -0.1421091242       22.6908277989  BUTH      10              0.0000000000
     13617       645  BUTH      H5            -21.8370169442       -0.4170160883       24.0936002612  BUTH      10              0.0000000000
     13618       645  BUTH      H6            -20.8921974962        1.8546781638       24.0275203714  BUTH      10              0.0000000000
     13619       645  BUTH      H7            -22.6324572863        1.8053182597       24.0800616139  BUTH      10              0.0000000000
     13620       645  BUTH      H8            -21.4209832886        3.8887182707       21.5024860612  BUTH      10              0.0000000000
     13621       645  BUTH      H9            -23.0241244007        3.6230453727       21.4296623757  BUTH      10              0.0000000000
     13622       645  BUTH      LPO11         -23.2244462132        2.7631919891       22.3013857985  BUTH      10              0.0000000000
     13623       645  BUTH      LPO12         -22.9861795064        3.1196891055       21.8025675240  BUTH      10              0.0000000000
     13624       645  BUTH      LPO21         -20.8607175292        3.4086599870       22.3053412324  BUTH      10              0.0000000000
     13625       645  BUTH      LPO22         -20.7692447488        3.0531855133       21.7594918781  BUTH      10              0.0000000000
     13626       646  BUTH      C1             14.5502991378       23.0134887801      -12.0342115245  BUTH      11              0.0000000000
     13627       646  BUTH      DC1            14.5024606864       23.0412590178      -12.0307255209  BUTH      11              0.0000000000
     13628       646  BUTH      C2             14.1527232529       23.5574851915      -10.6702040708  BUTH      11              0.0000000000
     13629       646  BUTH      DC2            14.1994705936       23.5260557899      -10.6385079525  BUTH      11              0.0000000000
     13630       646  BUTH      C3             12.6232842146       23.6606858784      -10.4996043746  BUTH      11              0.0000000000
     13631       646  BUTH      DC3            12.6157820206       23.6776980217      -10.5497294962  BUTH      11              0.0000000000
     13632       646  BUTH      C4             11.9639198692       24.3135825681      -11.4964081438  BUTH      11              0.0000000000
     13633       646  BUTH      DC4            11.9655160172       24.3079801642      -11.5105005344  BUTH      11              0.0000000000
     13634       646  BUTH      O1             11.1003645853       23.6451903107      -12.0855477400  BUTH      11              0.0000000000
     13635       646  BUTH      DO1            11.0911969798       23.6974911986      -12.0841646749  BUTH      11              0.0000000000
     13636       646  BUTH      O2             11.7447551116       25.5280869177      -11.4640684337  BUTH      11              0.0000000000
     13637       646  BUTH      DO2            11.7499486743       25.5202189612      -11.4702379478  BUTH      11              0.0000000000
     13638       646  BUTH      H1             14.1249734213       22.0010573036      -12.2027390959  BUTH      11              0.0000000000
     13639       646  BUTH      H2             14.1906931192       23.6760129981      -12.8503402970  BUTH      11              0.0000000000
     13640       646  BUTH      H3             15.6550940313       22.9351689889      -12.1214769438  BUTH      11              0.0000000000
     13641       646  BUTH      H4             14.5983909777       24.5665118549      -10.5376655040  BUTH      11              0.0000000000
     13642       646  BUTH      H5             14.5687661436       22.9101471158       -9.8688410256  BUTH      11              0.0000000000
     13643       646  BUTH      H6             12.4814245692       24.1711912579       -9.5230896027  BUTH      11              0.0000000000
     13644       646  BUTH      H7             12.2747870776       22.6226219826      -10.3117371510  BUTH      11              0.0000000000
     13645       646  BUTH      H8             10.8469123677       25.5065047932      -11.8305552945  BUTH      11              0.0000000000
     13646       646  BUTH      H9             10.5864867466       24.1386803671      -12.7423263413  BUTH      11              0.0000000000
     13647       646  BUTH      LPO11          11.0852257819       23.3229212135      -11.9498515882  BUTH      11              0.0000000000
     13648       646  BUTH      LPO12          10.9488779280       23.8384912111      -12.3349200613  BUTH      11              0.0000000000
     13649       646  BUTH      LPO21          11.6770532063       25.5987554491      -11.1280291343  BUTH      11              0.0000000000
     13650       646  BUTH      LPO22          11.9233334368       25.6593592857      -11.7349509676  BUTH      11              0.0000000000
     13651       647  BUTH      C1             12.0325711627       24.9865133564        6.4018006940  BUTH      12              0.0000000000
     13652       647  BUTH      DC1            12.0491666774       25.0305781817        6.4249287154  BUTH      12              0.0000000000
     13653       647  BUTH      C2             13.0108678996       24.0876251989        7.1453228523  BUTH      12              0.0000000000
     13654       647  BUTH      DC2            12.9753729951       24.0550897574        7.1206667942  BUTH      12              0.0000000000
     13655       647  BUTH      C3             13.7566517771       24.7969699304        8.2967513442  BUTH      12              0.0000000000
     13656       647  BUTH      DC3            13.7431342580       24.8614299233        8.2562619844  BUTH      12              0.0000000000
     13657       647  BUTH      C4             14.3417462041       25.9771505865        7.9656466557  BUTH      12              0.0000000000
     13658       647  BUTH      DC4            14.3334112877       26.0058880120        7.9625050833  BUTH      12              0.0000000000
     13659       647  BUTH      O1             13.9403120572       27.0114699375        8.5284124960  BUTH      12              0.0000000000
     13660       647  BUTH      DO1            14.0034440931       27.0382776427        8.5087183189  BUTH      12              0.0000000000
     13661       647  BUTH      O2             15.4228578897       26.1119841464        7.4163065078  BUTH      12              0.0000000000
     13662       647  BUTH      DO2            15.4267599986       26.1407081745        7.4153912133  BUTH      12              0.0000000000
     13663       647  BUTH      H1             11.2692354309       25.3995988877        7.0953422605  BUTH      12              0.0000000000
     13664       647  BUTH      H2             12.5605792165       25.8344080692        5.9153820958  BUTH      12              0.0000000000
     13665       647  BUTH      H3             11.4987865914       24.4117385603        5.6150167557  BUTH      12              0.0000000000
     13666       647  BUTH      H4             13.7595770611       23.6893628541        6.4275884331  BUTH      12              0.0000000000
     13667       647  BUTH      H5             12.4710787286       23.2094442179        7.5597463257  BUTH      12              0.0000000000
     13668       647  BUTH      H6             14.5044383307       24.0608507384        8.6618058709  BUTH      12              0.0000000000
     13669       647  BUTH      H7             13.0227566231       24.8692087836        9.1277149119  BUTH      12              0.0000000000
     13670       647  BUTH      H8             15.5159628143       27.0332461008        7.7052838155  BUTH      12              0.0000000000
     13671       647  BUTH      H9             14.4162743620       27.8156170168        8.2719590707  BUTH      12              0.0000000000
     13672       647  BUTH      LPO11          13.6838692696       26.9334672128        8.7534739800  BUTH      12              0.0000000000
     13673       647  BUTH      LPO12          14.1195001869       27.2885239593        8.4116534142  BUTH      12              0.0000000000
     13674       647  BUTH      LPO21          15.6525877527       25.9486863653        7.6238107841  BUTH      12              0.0000000000
     13675       647  BUTH      LPO22          15.3491878231       26.1510622763        7.0763864862  BUTH      12              0.0000000000
     13676       648  BUTH      C1              1.5340781507       13.8941988808       19.6131657596  BUTH      13              0.0000000000
     13677       648  BUTH      DC1             1.4905509065       13.8448597539       19.6139045841  BUTH      13              0.0000000000
     13678       648  BUTH      C2              1.6394303835       12.8038702817       18.5585817925  BUTH      13              0.0000000000
     13679       648  BUTH      DC2             1.7134341897       12.8081831752       18.5482992891  BUTH      13              0.0000000000
     13680       648  BUTH      C3              0.2569386425       12.4080029149       18.0101426350  BUTH      13              0.0000000000
     13681       648  BUTH      DC3             0.2503815249       12.4001275931       18.0855860586  BUTH      13              0.0000000000
     13682       648  BUTH      C4             -0.6684298201       12.1434035067       18.9592759414  BUTH      13              0.0000000000
     13683       648  BUTH      DC4            -0.6588137190       12.1176737154       18.9772812396  BUTH      13              0.0000000000
     13684       648  BUTH      O1             -1.6279139253       12.9087559363       19.0580774274  BUTH      13              0.0000000000
     13685       648  BUTH      DO1            -1.6245824643       12.8115696682       19.0900720594  BUTH      13              0.0000000000
     13686       648  BUTH      O2             -0.9467999769       11.0249814203       19.3376898190  BUTH      13              0.0000000000
     13687       648  BUTH      DO2            -0.9417021669       10.9838892398       19.3427121767  BUTH      13              0.0000000000
     13688       648  BUTH      H1              1.0041429789       14.7772236399       19.1963240743  BUTH      13              0.0000000000
     13689       648  BUTH      H2              0.9677527293       13.5589947410       20.5082829041  BUTH      13              0.0000000000
     13690       648  BUTH      H3              2.5392374596       14.2321414335       19.9444822167  BUTH      13              0.0000000000
     13691       648  BUTH      H4              2.1330342808       11.9080309795       18.9923422548  BUTH      13              0.0000000000
     13692       648  BUTH      H5              2.2786769310       13.1599377592       17.7225789200  BUTH      13              0.0000000000
     13693       648  BUTH      H6              0.4017206313       11.5214572246       17.3563873937  BUTH      13              0.0000000000
     13694       648  BUTH      H7             -0.0334395670       13.2086240013       17.2966951096  BUTH      13              0.0000000000
     13695       648  BUTH      H8             -1.8397399282       11.3300118165       19.5624445757  BUTH      13              0.0000000000
     13696       648  BUTH      H9             -2.3277668910       12.6051447317       19.6555613710  BUTH      13              0.0000000000
     13697       648  BUTH      LPO11          -1.6021650772       13.1643153125       18.8203246102  BUTH      13              0.0000000000
     13698       648  BUTH      LPO12          -1.8402227397       12.8020099930       19.3150409869  BUTH      13              0.0000000000
     13699       648  BUTH      LPO21          -1.0021069148       10.8386556863       19.0466161797  BUTH      13              0.0000000000
     13700       648  BUTH      LPO22          -0.7970566965       10.9925758608       19.6523751057  BUTH      13              0.0000000000
     13701       649  BUTH      C1             13.5753760594        3.7662169359      -24.9750456619  BUTH      14              0.0000000000
     13702       649  BUTH      DC1            13.5737534911        3.7676696875      -24.9555088175  BUTH      14              0.0000000000
     13703       649  BUTH      C2             14.0998111581        2.3504280863      -25.1536377773  BUTH      14              0.0000000000
     13704       649  BUTH      DC2            14.0769466972        2.3770104588      -25.2491667273  BUTH      14              0.0000000000
     13705       649  BUTH      C3             14.3150510368        1.6011115685      -23.8301457227  BUTH      14              0.0000000000
     13706       649  BUTH      DC3            14.3582871177        1.6893115798      -23.8437092207  BUTH      14              0.0000000000
     13707       649  BUTH      C4             15.2178467492        2.1058019511      -22.9617837365  BUTH      14              0.0000000000
     13708       649  BUTH      DC4            15.2190130942        2.1067428826      -22.9641574767  BUTH      14              0.0000000000
     13709       649  BUTH      O1             14.7670656834        2.7173548043      -21.9798416043  BUTH      14              0.0000000000
     13710       649  BUTH      DO1            14.8197221800        2.6994588407      -21.9763832933  BUTH      14              0.0000000000
     13711       649  BUTH      O2             16.4058502622        1.7382145963      -22.9300876090  BUTH      14              0.0000000000
     13712       649  BUTH      DO2            16.4075835865        1.7379878701      -22.9406852424  BUTH      14              0.0000000000
     13713       649  BUTH      H1             12.6366590137        3.7624273778      -24.3808092212  BUTH      14              0.0000000000
     13714       649  BUTH      H2             14.3129099927        4.3875115284      -24.4233594026  BUTH      14              0.0000000000
     13715       649  BUTH      H3             13.3793877922        4.2528864598      -25.9543629621  BUTH      14              0.0000000000
     13716       649  BUTH      H4             15.0755740182        2.3924608409      -25.6832046648  BUTH      14              0.0000000000
     13717       649  BUTH      H5             13.3838787840        1.7542341185      -25.7588770598  BUTH      14              0.0000000000
     13718       649  BUTH      H6             14.6082489103        0.5672636231      -24.1121287589  BUTH      14              0.0000000000
     13719       649  BUTH      H7             13.3006060789        1.4948437630      -23.3897713571  BUTH      14              0.0000000000
     13720       649  BUTH      H8             16.6341506621        2.1622684708      -22.0880916239  BUTH      14              0.0000000000
     13721       649  BUTH      H9             15.4366408095        3.0132730815      -21.3449695513  BUTH      14              0.0000000000
     13722       649  BUTH      LPO11          14.4172534079        2.7203086538      -21.9909162011  BUTH      14              0.0000000000
     13723       649  BUTH      LPO12          15.0299506589        2.8323310151      -21.7794121639  BUTH      14              0.0000000000
     13724       649  BUTH      LPO21          16.3945882458        1.4018189657      -22.8341128900  BUTH      14              0.0000000000
     13725       649  BUTH      LPO22          16.5718692134        1.9469541128      -23.1567272395  BUTH      14              0.0000000000
     13726       650  BUTH      C1             -3.0149479797       24.8056761329       12.5591559955  BUTH      15              0.0000000000
     13727       650  BUTH      DC1            -3.0172969987       24.8462857083       12.5528092420  BUTH      15              0.0000000000
     13728       650  BUTH      C2             -3.2330343052       26.0803111004       11.7485481284  BUTH      15              0.0000000000
     13729       650  BUTH      DC2            -3.1550837604       26.0667460658       11.6801094496  BUTH      15              0.0000000000
     13730       650  BUTH      C3             -3.9325578089       27.1919830243       12.5494490251  BUTH      15              0.0000000000
     13731       650  BUTH      DC3            -3.9277131019       27.1551647416       12.5365620309  BUTH      15              0.0000000000
     13732       650  BUTH      C4             -5.0799711569       26.8062313162       13.1705925894  BUTH      15              0.0000000000
     13733       650  BUTH      DC4            -5.0467430452       26.8150868453       13.1468077296  BUTH      15              0.0000000000
     13734       650  BUTH      O1             -5.0099166057       26.7853731696       14.4048620898  BUTH      15              0.0000000000
     13735       650  BUTH      DO1            -5.0447926249       26.7973530831       14.3578792607  BUTH      15              0.0000000000
     13736       650  BUTH      O2             -6.1864979588       27.0205161692       12.6651711580  BUTH      15              0.0000000000
     13737       650  BUTH      DO2            -6.1595324982       27.0370085718       12.6522809855  BUTH      15              0.0000000000
     13738       650  BUTH      H1             -2.4195703483       25.0108822914       13.4744356853  BUTH      15              0.0000000000
     13739       650  BUTH      H2             -3.9817907781       24.3686794163       12.8886554238  BUTH      15              0.0000000000
     13740       650  BUTH      H3             -2.4877732872       24.0248392424       11.9703422779  BUTH      15              0.0000000000
     13741       650  BUTH      H4             -3.8411481999       25.8405508698       10.8501976827  BUTH      15              0.0000000000
     13742       650  BUTH      H5             -2.2533889267       26.4881283804       11.4194569577  BUTH      15              0.0000000000
     13743       650  BUTH      H6             -4.1142092065       28.0177105521       11.8286870537  BUTH      15              0.0000000000
     13744       650  BUTH      H7             -3.1595542621       27.6041931055       13.2327274218  BUTH      15              0.0000000000
     13745       650  BUTH      H8             -6.7386234540       26.8729614874       13.4489345493  BUTH      15              0.0000000000
     13746       650  BUTH      H9             -5.8508585731       26.6117326618       14.8538905761  BUTH      15              0.0000000000
     13747       650  BUTH      LPO11          -4.6901807454       26.8832135145       14.5082847494  BUTH      15              0.0000000000
     13748       650  BUTH      LPO12          -5.3160875887       26.6834939978       14.5404348139  BUTH      15              0.0000000000
     13749       650  BUTH      LPO21          -6.2063564800       27.3688066863       12.6368982945  BUTH      15              0.0000000000
     13750       650  BUTH      LPO22          -6.2582266275       26.7320016046       12.4804704702  BUTH      15              0.0000000000
     13751       651  BUTH      C1             -4.4340182723       17.6845145810        6.2874110092  BUTH      16              0.0000000000
     13752       651  BUTH      DC1            -4.4144884422       17.7451835829        6.3188909081  BUTH      16              0.0000000000
     13753       651  BUTH      C2             -5.7758908474       17.4876626596        6.9853994088  BUTH      16              0.0000000000
     13754       651  BUTH      DC2            -5.7950144014       17.5055881040        6.9288809800  BUTH      16              0.0000000000
     13755       651  BUTH      C3             -5.9859438145       18.4537491372        8.1732160566  BUTH      16              0.0000000000
     13756       651  BUTH      DC3            -5.9338495285       18.4602972872        8.1935517577  BUTH      16              0.0000000000
     13757       651  BUTH      C4             -4.9579925055       18.5120122742        9.0659331088  BUTH      16              0.0000000000
     13758       651  BUTH      DC4            -4.9434841119       18.5339214904        9.0639762127  BUTH      16              0.0000000000
     13759       651  BUTH      O1             -4.3220026276       19.5855099222        9.0770315247  BUTH      16              0.0000000000
     13760       651  BUTH      DO1            -4.3022307199       19.5752908775        9.1162601526  BUTH      16              0.0000000000
     13761       651  BUTH      O2             -4.9661788715       17.8802570131       10.1367247801  BUTH      16              0.0000000000
     13762       651  BUTH      DO2            -4.9714411075       17.8965327625       10.1343273516  BUTH      16              0.0000000000
     13763       651  BUTH      H1             -4.3608521152       18.6991176370        5.8407026545  BUTH      16              0.0000000000
     13764       651  BUTH      H2             -3.5920152197       17.5331148837        6.9962339718  BUTH      16              0.0000000000
     13765       651  BUTH      H3             -4.3097718678       16.9327321822        5.4788894845  BUTH      16              0.0000000000
     13766       651  BUTH      H4             -5.8351190063       16.4435132243        7.3603193762  BUTH      16              0.0000000000
     13767       651  BUTH      H5             -6.6050015538       17.5959013628        6.2538388701  BUTH      16              0.0000000000
     13768       651  BUTH      H6             -6.9264926576       18.1115192199        8.6554686450  BUTH      16              0.0000000000
     13769       651  BUTH      H7             -6.2563245570       19.4292480258        7.7153763769  BUTH      16              0.0000000000
     13770       651  BUTH      H8             -4.2691117168       18.3693665319       10.6012344791  BUTH      16              0.0000000000
     13771       651  BUTH      H9             -3.6627256171       19.6570073780        9.7835744727  BUTH      16              0.0000000000
     13772       651  BUTH      LPO11          -4.4561884685       19.8065896972        8.8411970633  BUTH      16              0.0000000000
     13773       651  BUTH      LPO12          -4.0657900115       19.5704011235        9.3149954286  BUTH      16              0.0000000000
     13774       651  BUTH      LPO21          -5.2496056220       17.9951169568       10.3069495446  BUTH      16              0.0000000000
     13775       651  BUTH      LPO22          -4.7986816642       17.5811493656       10.0661606199  BUTH      16              0.0000000000
     13776       652  BUTH      C1             -3.3375820901      -17.1494380158       17.7242756073  BUTH      17              0.0000000000
     13777       652  BUTH      DC1            -3.3583028709      -17.1076430411       17.7033800688  BUTH      17              0.0000000000
     13778       652  BUTH      C2             -3.4486407215      -16.0055129124       18.7230770824  BUTH      17              0.0000000000
     13779       652  BUTH      DC2            -3.4349920079      -16.0336563760       18.7547478713  BUTH      17              0.0000000000
     13780       652  BUTH      C3             -4.6311762051      -15.0587226648       18.4416770104  BUTH      17              0.0000000000
     13781       652  BUTH      DC3            -4.6352416360      -15.0582105386       18.3827504066  BUTH      17              0.0000000000
     13782       652  BUTH      C4             -4.7153289076      -14.6295014431       17.1560059786  BUTH      17              0.0000000000
     13783       652  BUTH      DC4            -4.7249134986      -14.6308040569       17.1429737924  BUTH      17              0.0000000000
     13784       652  BUTH      O1             -5.7638601612      -14.9454588828       16.5654491894  BUTH      17              0.0000000000
     13785       652  BUTH      DO1            -5.7605853042      -14.8935354978       16.5475005043  BUTH      17              0.0000000000
     13786       652  BUTH      O2             -4.2327084088      -13.5458157090       16.7932713249  BUTH      17              0.0000000000
     13787       652  BUTH      DO2            -4.2379887870      -13.5453024610       16.7930413174  BUTH      17              0.0000000000
     13788       652  BUTH      H1             -4.2465348781      -17.7880946013       17.7398831487  BUTH      17              0.0000000000
     13789       652  BUTH      H2             -3.1924820357      -16.7808234019       16.6863015032  BUTH      17              0.0000000000
     13790       652  BUTH      H3             -2.4708244283      -17.7969100421       17.9769258248  BUTH      17              0.0000000000
     13791       652  BUTH      H4             -2.5103775490      -15.4110292281       18.6991528635  BUTH      17              0.0000000000
     13792       652  BUTH      H5             -3.5450624898      -16.4183186829       19.7500216960  BUTH      17              0.0000000000
     13793       652  BUTH      H6             -4.4901699567      -14.2054960163       19.1391313273  BUTH      17              0.0000000000
     13794       652  BUTH      H7             -5.5327991269      -15.5782993825       18.8308262665  BUTH      17              0.0000000000
     13795       652  BUTH      H8             -4.8679199837      -13.3656156339       16.0826841102  BUTH      17              0.0000000000
     13796       652  BUTH      H9             -5.8536277548      -14.5645009311       15.6790103488  BUTH      17              0.0000000000
     13797       652  BUTH      LPO11          -5.9710344232      -15.1292784578       16.7794332753  BUTH      17              0.0000000000
     13798       652  BUTH      LPO12          -5.7584505291      -14.8224377205       16.2378266482  BUTH      17              0.0000000000
     13799       652  BUTH      LPO21          -4.3362734712      -13.3147920846       17.0349371330  BUTH      17              0.0000000000
     13800       652  BUTH      LPO22          -3.9481685254      -13.6305667768       16.6079221645  BUTH      17              0.0000000000
     13801       653  BUTH      C1             -5.6601109928      -14.5958503674      -28.6112625797  BUTH      18              0.0000000000
     13802       653  BUTH      DC1            -5.6602648470      -14.5365255327      -28.5658667234  BUTH      18              0.0000000000
     13803       653  BUTH      C2             -6.0656067711      -13.1905354964      -29.0412478486  BUTH      18              0.0000000000
     13804       653  BUTH      DC2            -6.0442423476      -13.1746230291      -29.0702759183  BUTH      18              0.0000000000
     13805       653  BUTH      C3             -5.6930618635      -12.1234820998      -27.9901325795  BUTH      18              0.0000000000
     13806       653  BUTH      DC3            -5.6945220892      -12.1225980736      -27.9274873714  BUTH      18              0.0000000000
     13807       653  BUTH      C4             -6.1085038770      -12.3978232907      -26.7213173747  BUTH      18              0.0000000000
     13808       653  BUTH      DC4            -6.1114913718      -12.3976949869      -26.7061216765  BUTH      18              0.0000000000
     13809       653  BUTH      O1             -5.1966247770      -12.5171279098      -25.8851140267  BUTH      18              0.0000000000
     13810       653  BUTH      DO1            -5.2475666812      -12.4802311262      -25.8531473156  BUTH      18              0.0000000000
     13811       653  BUTH      O2             -7.1036804336      -11.8567581654      -26.2299517765  BUTH      18              0.0000000000
     13812       653  BUTH      DO2            -7.1068580231      -11.8484689010      -26.2254694596  BUTH      18              0.0000000000
     13813       653  BUTH      H1             -4.5662820108      -14.6669073619      -28.4301270989  BUTH      18              0.0000000000
     13814       653  BUTH      H2             -6.1804870002      -14.9122497611      -27.6820579549  BUTH      18              0.0000000000
     13815       653  BUTH      H3             -5.9150677627      -15.3354182289      -29.4001589137  BUTH      18              0.0000000000
     13816       653  BUTH      H4             -7.1625887198      -13.1715526950      -29.2161514146  BUTH      18              0.0000000000
     13817       653  BUTH      H5             -5.5928180803      -12.9488584570      -30.0171495154  BUTH      18              0.0000000000
     13818       653  BUTH      H6             -6.1277626287      -11.1782241082      -28.3798036897  BUTH      18              0.0000000000
     13819       653  BUTH      H7             -4.5957192847      -11.9882453497      -28.0990880175  BUTH      18              0.0000000000
     13820       653  BUTH      H8             -6.7609776460      -11.8744202671      -25.3226795739  BUTH      18              0.0000000000
     13821       653  BUTH      H9             -5.5004093676      -12.6121739710      -24.9698860932  BUTH      18              0.0000000000
     13822       653  BUTH      LPO11          -4.8859297240      -12.4702924754      -26.0393055510  BUTH      18              0.0000000000
     13823       653  BUTH      LPO12          -5.3316797156      -12.5869430098      -25.5698585504  BUTH      18              0.0000000000
     13824       653  BUTH      LPO21          -7.0722390342      -11.5173004935      -26.3091977692  BUTH      18              0.0000000000
     13825       653  BUTH      LPO22          -7.3474798989      -12.1075305357      -26.2167215440  BUTH      18              0.0000000000
     13826       654  BUTH      C1            -16.2843240559       11.2606597448      -20.1177238908  BUTH      19              0.0000000000
     13827       654  BUTH      DC1           -16.2125624117       11.1974478289      -20.0918008156  BUTH      19              0.0000000000
     13828       654  BUTH      C2            -15.8784445179       10.2864900513      -19.0235059727  BUTH      19              0.0000000000
     13829       654  BUTH      DC2           -15.9391188335       10.2227885570      -19.0061870718  BUTH      19              0.0000000000
     13830       654  BUTH      C3            -14.6232234923       10.7532672182      -18.2748193541  BUTH      19              0.0000000000
     13831       654  BUTH      DC3           -14.5900525124       10.7482473497      -18.3327517838  BUTH      19              0.0000000000
     13832       654  BUTH      C4            -13.5947681021       11.0042845992      -19.1200923487  BUTH      19              0.0000000000
     13833       654  BUTH      DC4           -13.5848343807       10.9869434150      -19.1253956064  BUTH      19              0.0000000000
     13834       654  BUTH      O1            -13.0843212332       12.1246541575      -19.0266395773  BUTH      19              0.0000000000
     13835       654  BUTH      DO1           -13.0434403007       12.0615893381      -19.0444473949  BUTH      19              0.0000000000
     13836       654  BUTH      O2            -12.7779307185       10.1365206241      -19.4445632577  BUTH      19              0.0000000000
     13837       654  BUTH      DO2           -12.7723203629       10.1100364373      -19.4393386961  BUTH      19              0.0000000000
     13838       654  BUTH      H1            -16.3817738823       12.2913200144      -19.7145317009  BUTH      19              0.0000000000
     13839       654  BUTH      H2            -15.5522994780       11.2925108689      -20.9528565296  BUTH      19              0.0000000000
     13840       654  BUTH      H3            -17.2826679617       11.0389513133      -20.5518619070  BUTH      19              0.0000000000
     13841       654  BUTH      H4            -15.6261488669        9.2990708196      -19.4658533082  BUTH      19              0.0000000000
     13842       654  BUTH      H5            -16.7147797118       10.1551993620      -18.3040428393  BUTH      19              0.0000000000
     13843       654  BUTH      H6            -14.3780473027        9.9418481205      -17.5566211335  BUTH      19              0.0000000000
     13844       654  BUTH      H7            -14.9418326043       11.6052200366      -17.6368651001  BUTH      19              0.0000000000
     13845       654  BUTH      H8            -12.0842810237       10.7889102917      -19.6293274925  BUTH      19              0.0000000000
     13846       654  BUTH      H9            -12.3196410330       12.2654952833      -19.6049033313  BUTH      19              0.0000000000
     13847       654  BUTH      LPO11         -13.2464522366       12.3096802315      -18.7776839795  BUTH      19              0.0000000000
     13848       654  BUTH      LPO12         -12.8232132767       12.1568706054      -19.2574744437  BUTH      19              0.0000000000
     13849       654  BUTH      LPO21         -12.6660470393        9.9973214716      -19.1435555530  BUTH      19              0.0000000000
     13850       654  BUTH      LPO22         -12.8705571714       10.0380828582      -19.7674105072  BUTH      19              0.0000000000
     13851       655  BUTH      C1            -13.1684380867        6.2573994513       13.9739618229  BUTH      20              0.0000000000
     13852       655  BUTH      DC1           -13.1591025862        6.1544166956       14.0029850008  BUTH      20              0.0000000000
     13853       655  BUTH      C2            -13.1135906337        4.8805294451       13.3409566771  BUTH      20              0.0000000000
     13854       655  BUTH      DC2           -13.1811323881        4.8457214935       13.2905630545  BUTH      20              0.0000000000
     13855       655  BUTH      C3            -12.3950870517        3.8774110467       14.2630481101  BUTH      20              0.0000000000
     13856       655  BUTH      DC3           -12.3789671773        3.8726810824       14.2704854213  BUTH      20              0.0000000000
     13857       655  BUTH      C4            -11.1428157909        4.1624044093       14.7274911051  BUTH      20              0.0000000000
     13858       655  BUTH      DC4           -11.1565329949        4.1785164345       14.7065438576  BUTH      20              0.0000000000
     13859       655  BUTH      O1            -11.1151298867        4.3461557764       15.9525231965  BUTH      20              0.0000000000
     13860       655  BUTH      DO1           -11.0994692071        4.3256559738       15.9180752688  BUTH      20              0.0000000000
     13861       655  BUTH      O2            -10.1371475830        3.6098603527       14.2018968873  BUTH      20              0.0000000000
     13862       655  BUTH      DO2           -10.1544726916        3.6254384370       14.1582628470  BUTH      20              0.0000000000
     13863       655  BUTH      H1            -13.6346352338        6.2428111174       14.9823111674  BUTH      20              0.0000000000
     13864       655  BUTH      H2            -12.1504920545        6.6872123548       14.0895807877  BUTH      20              0.0000000000
     13865       655  BUTH      H3            -13.7464133462        6.9676899652       13.3448728103  BUTH      20              0.0000000000
     13866       655  BUTH      H4            -12.5757190670        4.9516987470       12.3714464346  BUTH      20              0.0000000000
     13867       655  BUTH      H5            -14.1448567763        4.5243693093       13.1312876504  BUTH      20              0.0000000000
     13868       655  BUTH      H6            -12.3932208383        2.9285385326       13.6851567101  BUTH      20              0.0000000000
     13869       655  BUTH      H7            -13.1367671335        3.7261268809       15.0762791704  BUTH      20              0.0000000000
     13870       655  BUTH      H8             -9.7195901991        3.2174132829       14.9845405665  BUTH      20              0.0000000000
     13871       655  BUTH      H9            -10.2259950591        4.4662502477       16.3185526711  BUTH      20              0.0000000000
     13872       655  BUTH      LPO11         -11.4365271419        4.3099650134       16.0862917766  BUTH      20              0.0000000000
     13873       655  BUTH      LPO12         -10.7883830347        4.4178518172       16.0554609081  BUTH      20              0.0000000000
     13874       655  BUTH      LPO21         -10.2629425155        3.3214707018       14.0485768162  BUTH      20              0.0000000000
     13875       655  BUTH      LPO22          -9.9137941494        3.8716923865       14.1382004999  BUTH      20              0.0000000000
     13876       656  BUTH      C1              0.8204283201       25.8974308481      -23.3848838743  BUTH      21              0.0000000000
     13877       656  BUTH      DC1             0.8454467915       25.8798328405      -23.3410897365  BUTH      21              0.0000000000
     13878       656  BUTH      C2             -0.4614342540       25.4860542735      -24.0943221812  BUTH      21              0.0000000000
     13879       656  BUTH      DC2            -0.3966465448       25.5168005513      -24.1384332342  BUTH      21              0.0000000000
     13880       656  BUTH      C3             -1.6913628441       25.3884829691      -23.1578918961  BUTH      21              0.0000000000
     13881       656  BUTH      DC3            -1.6258469099       25.3554634852      -23.1326356216  BUTH      21              0.0000000000
     13882       656  BUTH      C4             -1.6027246085       24.5609354775      -22.0792712924  BUTH      21              0.0000000000
     13883       656  BUTH      DC4            -1.5849376696       24.5646380944      -22.0775159783  BUTH      21              0.0000000000
     13884       656  BUTH      O1             -1.3359189234       25.0779841913      -20.9790961503  BUTH      21              0.0000000000
     13885       656  BUTH      DO1            -1.3374501505       25.0326454589      -20.9794889731  BUTH      21              0.0000000000
     13886       656  BUTH      O2             -1.7129591732       23.3127992024      -22.1573506072  BUTH      21              0.0000000000
     13887       656  BUTH      DO2            -1.6971673294       23.3215922063      -22.1662602893  BUTH      21              0.0000000000
     13888       656  BUTH      H1              0.6870306452       26.8808053511      -22.8853834752  BUTH      21              0.0000000000
     13889       656  BUTH      H2              1.0711949165       25.1447004041      -22.6071731351  BUTH      21              0.0000000000
     13890       656  BUTH      H3              1.6673771777       25.9805457386      -24.0990901103  BUTH      21              0.0000000000
     13891       656  BUTH      H4             -0.3081250530       24.4975137914      -24.5776491970  BUTH      21              0.0000000000
     13892       656  BUTH      H5             -0.6942720392       26.2137979190      -24.9008559701  BUTH      21              0.0000000000
     13893       656  BUTH      H6             -2.5313620257       25.0779068465      -23.8153604112  BUTH      21              0.0000000000
     13894       656  BUTH      H7             -1.9467228311       26.4359544614      -22.8897207758  BUTH      21              0.0000000000
     13895       656  BUTH      H8             -1.9324466817       23.1003650020      -21.2367003240  BUTH      21              0.0000000000
     13896       656  BUTH      H9             -1.2994835661       24.4575103641      -20.2356947147  BUTH      21              0.0000000000
     13897       656  BUTH      LPO11          -1.2977010276       25.4239758715      -21.0155536560  BUTH      21              0.0000000000
     13898       656  BUTH      LPO12          -1.3228114935       24.8314570095      -20.7309982988  BUTH      21              0.0000000000
     13899       656  BUTH      LPO21          -2.0238654747       23.2594383224      -22.3089747747  BUTH      21              0.0000000000
     13900       656  BUTH      LPO22          -1.3839255099       23.1943153191      -22.1714366914  BUTH      21              0.0000000000
     13901       657  BUTH      C1             10.7900035012       11.5900059873       -0.9914530165  BUTH      22              0.0000000000
     13902       657  BUTH      DC1            10.7896305524       11.5804716756       -1.0177730919  BUTH      22              0.0000000000
     13903       657  BUTH      C2             10.6216986826       12.7719328899       -0.0470096461  BUTH      22              0.0000000000
     13904       657  BUTH      DC2            10.7274924722       12.7472745532       -0.0483218533  BUTH      22              0.0000000000
     13905       657  BUTH      C3              9.1660146829       12.9511513480        0.4509295771  BUTH      22              0.0000000000
     13906       657  BUTH      DC3             9.1979953313       12.9196119715        0.3888975571  BUTH      22              0.0000000000
     13907       657  BUTH      C4              8.1608340700       12.9838671159       -0.4749591061  BUTH      22              0.0000000000
     13908       657  BUTH      DC4             8.1887349455       12.9736580644       -0.4790729926  BUTH      22              0.0000000000
     13909       657  BUTH      O1              7.7817007314       11.8944090674       -0.9352285399  BUTH      22              0.0000000000
     13910       657  BUTH      DO1             7.7648743241       11.9323202618       -0.9505864953  BUTH      22              0.0000000000
     13911       657  BUTH      O2              7.5267793380       13.9934861302       -0.8024195012  BUTH      22              0.0000000000
     13912       657  BUTH      DO2             7.5397336600       13.9821246304       -0.8159973494  BUTH      22              0.0000000000
     13913       657  BUTH      H1             10.4316671075       10.6592369271       -0.5019788236  BUTH      22              0.0000000000
     13914       657  BUTH      H2             10.1699142307       11.7541379635       -1.8985753858  BUTH      22              0.0000000000
     13915       657  BUTH      H3             11.8446548309       11.4420316953       -1.3078944519  BUTH      22              0.0000000000
     13916       657  BUTH      H4             10.9253152660       13.7064111223       -0.5655541519  BUTH      22              0.0000000000
     13917       657  BUTH      H5             11.2813102716       12.6444286047        0.8378497828  BUTH      22              0.0000000000
     13918       657  BUTH      H6              9.1714016849       13.8681128268        1.0782043392  BUTH      22              0.0000000000
     13919       657  BUTH      H7              9.0043959452       12.1364362121        1.1887911028  BUTH      22              0.0000000000
     13920       657  BUTH      H8              6.6729496602       13.5768986572       -0.9981993739  BUTH      22              0.0000000000
     13921       657  BUTH      H9              6.9946125000       11.9574034987       -1.4969088917  BUTH      22              0.0000000000
     13922       657  BUTH      LPO11           7.9654299761       11.6333674879       -0.7916985485  BUTH      22              0.0000000000
     13923       657  BUTH      LPO12           7.5248865520       11.9454375400       -1.1674839430  BUTH      22              0.0000000000
     13924       657  BUTH      LPO21           7.4522075080       14.1544571104       -0.5007120507  BUTH      22              0.0000000000
     13925       657  BUTH      LPO22           7.6376630443       14.0681572667       -1.1258836029  BUTH      22              0.0000000000
     13926       658  BUTH      C1             -9.4119374416      -15.6690838145      -25.7548238924  BUTH      23              0.0000000000
     13927       658  BUTH      DC1            -9.3837414393      -15.6432496576      -25.6889101492  BUTH      23              0.0000000000
     13928       658  BUTH      C2             -7.9816366923      -15.2638198631      -25.4417545173  BUTH      23              0.0000000000
     13929       658  BUTH      DC2            -7.9488109640      -15.2700857316      -25.4777667775  BUTH      23              0.0000000000
     13930       658  BUTH      C3             -7.6823747653      -15.3478358298      -23.9372020542  BUTH      23              0.0000000000
     13931       658  BUTH      DC3            -7.7403910429      -15.3077292792      -23.8923416244  BUTH      23              0.0000000000
     13932       658  BUTH      C4             -8.5914850790      -14.6655088799      -23.1989775536  BUTH      23              0.0000000000
     13933       658  BUTH      DC4            -8.5757160138      -14.6546623126      -23.1555854424  BUTH      23              0.0000000000
     13934       658  BUTH      O1             -9.1872759625      -15.3506512681      -22.3583634001  BUTH      23              0.0000000000
     13935       658  BUTH      DO1            -9.1558408530      -15.2876087119      -22.3124827075  BUTH      23              0.0000000000
     13936       658  BUTH      O2             -8.3352854207      -13.5647586243      -22.7210995274  BUTH      23              0.0000000000
     13937       658  BUTH      DO2            -8.3001179657      -13.5559915148      -22.6854538568  BUTH      23              0.0000000000
     13938       658  BUTH      H1             -9.6119346596      -16.7088576130      -25.4183828704  BUTH      23              0.0000000000
     13939       658  BUTH      H2            -10.1483586892      -14.9942273235      -25.2684357116  BUTH      23              0.0000000000
     13940       658  BUTH      H3             -9.6024312356      -15.6343077930      -26.8488182914  BUTH      23              0.0000000000
     13941       658  BUTH      H4             -7.8153863364      -14.2254759756      -25.8002566656  BUTH      23              0.0000000000
     13942       658  BUTH      H5             -7.2766196646      -15.9209812883      -25.9943944117  BUTH      23              0.0000000000
     13943       658  BUTH      H6             -6.6436088544      -14.9717227981      -23.8196207219  BUTH      23              0.0000000000
     13944       658  BUTH      H7             -7.6112254704      -16.4342210750      -23.7157841743  BUTH      23              0.0000000000
     13945       658  BUTH      H8             -9.1727781980      -13.5374949957      -22.2324661858  BUTH      23              0.0000000000
     13946       658  BUTH      H9             -9.7477705832      -14.8466301333      -21.7494549703  BUTH      23              0.0000000000
     13947       658  BUTH      LPO11          -9.0746148352      -15.6817359711      -22.3721615819  BUTH      23              0.0000000000
     13948       658  BUTH      LPO12          -9.4152169084      -15.1521350424      -22.1819144462  BUTH      23              0.0000000000
     13949       658  BUTH      LPO21          -8.1047089935      -13.6262135749      -22.4650569522  BUTH      23              0.0000000000
     13950       658  BUTH      LPO22          -8.3950037513      -13.3356021557      -22.9788223123  BUTH      23              0.0000000000
     13951       659  BUTH      C1             23.6878601469       12.0451916382       -3.3887735683  BUTH      24              0.0000000000
     13952       659  BUTH      DC1            23.6771371145       12.0286774574       -3.4535816315  BUTH      24              0.0000000000
     13953       659  BUTH      C2             23.8112620645       10.9001590839       -4.3824806755  BUTH      24              0.0000000000
     13954       659  BUTH      DC2            23.8361867033       10.8400423796       -4.3556008105  BUTH      24              0.0000000000
     13955       659  BUTH      C3             24.0340715927       11.4126710083       -5.8198292844  BUTH      24              0.0000000000
     13956       659  BUTH      DC3            23.9938852177       11.4407905858       -5.8211329658  BUTH      24              0.0000000000
     13957       659  BUTH      C4             23.1217049177       12.3343616204       -6.2375223166  BUTH      24              0.0000000000
     13958       659  BUTH      DC4            23.1061116942       12.3260059134       -6.2349894546  BUTH      24              0.0000000000
     13959       659  BUTH      O1             23.5305948528       13.4888606256       -6.4091826688  BUTH      24              0.0000000000
     13960       659  BUTH      DO1            23.4645980355       13.4590648763       -6.4554453086  BUTH      24              0.0000000000
     13961       659  BUTH      O2             22.2069097228       12.0598655837       -6.9959226588  BUTH      24              0.0000000000
     13962       659  BUTH      DO2            22.1947695289       12.0445300718       -7.0011491296  BUTH      24              0.0000000000
     13963       659  BUTH      H1             24.6051609638       12.6718413301       -3.3749759263  BUTH      24              0.0000000000
     13964       659  BUTH      H2             22.8366601382       12.7116747466       -3.6448591276  BUTH      24              0.0000000000
     13965       659  BUTH      H3             23.5253280759       11.6681264038       -2.3564334424  BUTH      24              0.0000000000
     13966       659  BUTH      H4             22.8789486185       10.2973468700       -4.3408865228  BUTH      24              0.0000000000
     13967       659  BUTH      H5             24.6492181577       10.2337542277       -4.0857397895  BUTH      24              0.0000000000
     13968       659  BUTH      H6             24.0500052501       10.5089175441       -6.4658144196  BUTH      24              0.0000000000
     13969       659  BUTH      H7             25.0833576713       11.7771475693       -5.8416595772  BUTH      24              0.0000000000
     13970       659  BUTH      H8             22.2219704002       12.9390219028       -7.4055045719  BUTH      24              0.0000000000
     13971       659  BUTH      H9             22.8932756520       14.0841221370       -6.8316148755  BUTH      24              0.0000000000
     13972       659  BUTH      LPO11          23.8723581083       13.5069490628       -6.3358977067  BUTH      24              0.0000000000
     13973       659  BUTH      LPO12          23.2679864753       13.6942656521       -6.5156984666  BUTH      24              0.0000000000
     13974       659  BUTH      LPO21          22.3506523677       11.8616812244       -7.2460446526  BUTH      24              0.0000000000
     13975       659  BUTH      LPO22          21.9169218416       12.0766065962       -6.8006618915  BUTH      24              0.0000000000
     13976       660  BUTH      C1             17.0703356680      -22.1076883339       16.5207072080  BUTH      25              0.0000000000
     13977       660  BUTH      DC1            17.1493578309      -22.1491028825       16.4865694252  BUTH      25              0.0000000000
     13978       660  BUTH      C2             18.5357284689      -21.7948657182       16.2846318400  BUTH      25              0.0000000000
     13979       660  BUTH      DC2            18.5560106227      -21.7186447425       16.2663663540  BUTH      25              0.0000000000
     13980       660  BUTH      C3             19.2174277644      -22.9515162792       15.5402728667  BUTH      25              0.0000000000
     13981       660  BUTH      DC3            19.2088451257      -22.9910108493       15.5614789806  BUTH      25              0.0000000000
     13982       660  BUTH      C4             18.9623846952      -24.1571496001       16.1194609966  BUTH      25              0.0000000000
     13983       660  BUTH      DC4            18.9733755901      -24.1641190807       16.1130288284  BUTH      25              0.0000000000
     13984       660  BUTH      O1             18.3709550239      -24.9816243761       15.4079335948  BUTH      25              0.0000000000
     13985       660  BUTH      DO1            18.4206958325      -25.0098703150       15.4492776964  BUTH      25              0.0000000000
     13986       660  BUTH      O2             19.7662813931      -24.6994570934       16.8692771178  BUTH      25              0.0000000000
     13987       660  BUTH      DO2            19.7841297970      -24.7052515854       16.8518922295  BUTH      25              0.0000000000
     13988       660  BUTH      H1             16.5150920840      -22.2753903913       15.5731305180  BUTH      25              0.0000000000
     13989       660  BUTH      H2             16.9187272744      -22.9932601946       17.1742348471  BUTH      25              0.0000000000
     13990       660  BUTH      H3             16.5653336774      -21.2563399340       17.0251870305  BUTH      25              0.0000000000
     13991       660  BUTH      H4             19.0312716523      -21.6464059220       17.2678498439  BUTH      25              0.0000000000
     13992       660  BUTH      H5             18.6365842085      -20.8490039374       15.7106156282  BUTH      25              0.0000000000
     13993       660  BUTH      H6             20.2989225894      -22.6980341278       15.5193744607  BUTH      25              0.0000000000
     13994       660  BUTH      H7             18.8839799059      -22.8621718930       14.4842657141  BUTH      25              0.0000000000
     13995       660  BUTH      H8             19.3244680045      -25.5626999899       16.8466357570  BUTH      25              0.0000000000
     13996       660  BUTH      H9             18.2742982023      -25.8607089113       15.8039498050  BUTH      25              0.0000000000
     13997       660  BUTH      LPO11          18.3065516769      -24.8434599171       15.0928736145  BUTH      25              0.0000000000
     13998       660  BUTH      LPO12          18.3211013695      -25.2790673090       15.5855351566  BUTH      25              0.0000000000
     13999       660  BUTH      LPO21          20.0486969148      -24.7607366920       16.6718276714  BUTH      25              0.0000000000
     14000       660  BUTH      LPO22          19.6826273874      -24.5869700686       17.1899774087  BUTH      25              0.0000000000
     14001       661  BUTH      C1              5.5155182281      -25.6616382981      -15.3570742001  BUTH      26              0.0000000000
     14002       661  BUTH      DC1             5.4893302889      -25.6563576918      -15.3516539164  BUTH      26              0.0000000000
     14003       661  BUTH      C2              5.3875025049      -25.4859352520      -16.8636628443  BUTH      26              0.0000000000
     14004       661  BUTH      DC2             5.4608192327      -25.4423570661      -16.8476068170  BUTH      26              0.0000000000
     14005       661  BUTH      C3              3.9232531514      -25.4954203329      -17.3517560298  BUTH      26              0.0000000000
     14006       661  BUTH      DC3             3.9463218885      -25.5163520435      -17.3148680112  BUTH      26              0.0000000000
     14007       661  BUTH      C4              3.1617566774      -26.5633659175      -16.9840525588  BUTH      26              0.0000000000
     14008       661  BUTH      DC4             3.1818916537      -26.5438896320      -16.9721955601  BUTH      26              0.0000000000
     14009       661  BUTH      O1              2.1860022996      -26.2953043671      -16.2677750969  BUTH      26              0.0000000000
     14010       661  BUTH      DO1             2.1961013672      -26.3250159269      -16.2963335136  BUTH      26              0.0000000000
     14011       661  BUTH      O2              3.1683989033      -27.6425724067      -17.5974613347  BUTH      26              0.0000000000
     14012       661  BUTH      DO2             3.1808841749      -27.6301631783      -17.5832705035  BUTH      26              0.0000000000
     14013       661  BUTH      H1              4.9693287704      -24.8459075409      -14.8368997985  BUTH      26              0.0000000000
     14014       661  BUTH      H2              5.0801454140      -26.6299818270      -15.0298398430  BUTH      26              0.0000000000
     14015       661  BUTH      H3              6.5779440668      -25.6348064874      -15.0332650100  BUTH      26              0.0000000000
     14016       661  BUTH      H4              5.9329440250      -26.3096052858      -17.3719759607  BUTH      26              0.0000000000
     14017       661  BUTH      H5              5.8611648566      -24.5308694978      -17.1764157529  BUTH      26              0.0000000000
     14018       661  BUTH      H6              4.0063912530      -25.4383615636      -18.4581706686  BUTH      26              0.0000000000
     14019       661  BUTH      H7              3.4928946624      -24.5106972072      -17.0699175322  BUTH      26              0.0000000000
     14020       661  BUTH      H8              2.2437074669      -27.9033268547      -17.4638467203  BUTH      26              0.0000000000
     14021       661  BUTH      H9              1.6334396652      -27.0573809980      -16.0378300084  BUTH      26              0.0000000000
     14022       661  BUTH      LPO11           2.1730191761      -25.9508336230      -16.2071834728  BUTH      26              0.0000000000
     14023       661  BUTH      LPO12           2.0105544417      -26.5880089064      -16.1900441389  BUTH      26              0.0000000000
     14024       661  BUTH      LPO21           3.1612534101      -27.5535398323      -17.9358725382  BUTH      26              0.0000000000
     14025       661  BUTH      LPO22           3.3295841967      -27.8669744990      -17.3826055641  BUTH      26              0.0000000000
     14026       662  BUTH      C1             23.3189399191      -22.1504450392       -2.6877595010  BUTH      27              0.0000000000
     14027       662  BUTH      DC1            23.3518584147      -22.1610519419       -2.6795988016  BUTH      27              0.0000000000
     14028       662  BUTH      C2             23.3882791560      -23.0746185986       -1.4787433642  BUTH      27              0.0000000000
     14029       662  BUTH      DC2            23.3176111949      -23.0349806064       -1.4592131736  BUTH      27              0.0000000000
     14030       662  BUTH      C3             24.8319632483      -23.5001541011       -1.1226200597  BUTH      27              0.0000000000
     14031       662  BUTH      DC3            24.8106556291      -23.4902011951       -1.1596638327  BUTH      27              0.0000000000
     14032       662  BUTH      C4             25.5549394007      -24.0560637434       -2.1343089620  BUTH      27              0.0000000000
     14033       662  BUTH      DC4            25.5416280209      -24.0360661030       -2.1150258312  BUTH      27              0.0000000000
     14034       662  BUTH      O1             26.4040426283      -23.3047906349       -2.6464532844  BUTH      27              0.0000000000
     14035       662  BUTH      DO1            26.3931047626      -23.3348449726       -2.6458318055  BUTH      27              0.0000000000
     14036       662  BUTH      O2             25.5803543810      -25.3047736531       -2.3250254511  BUTH      27              0.0000000000
     14037       662  BUTH      DO2            25.5713830440      -25.2863940054       -2.2918069962  BUTH      27              0.0000000000
     14038       662  BUTH      H1             24.0231039543      -21.2988009120       -2.5729714630  BUTH      27              0.0000000000
     14039       662  BUTH      H2             23.6106395739      -22.6884354647       -3.6150127641  BUTH      27              0.0000000000
     14040       662  BUTH      H3             22.2960557195      -21.7429659430       -2.8360487468  BUTH      27              0.0000000000
     14041       662  BUTH      H4             22.7880056030      -23.9862038801       -1.6861196794  BUTH      27              0.0000000000
     14042       662  BUTH      H5             22.9270681711      -22.5782758027       -0.5982609632  BUTH      27              0.0000000000
     14043       662  BUTH      H6             24.7313685547      -24.2093543567       -0.2733634991  BUTH      27              0.0000000000
     14044       662  BUTH      H7             25.3086663164      -22.6050329206       -0.6689315575  BUTH      27              0.0000000000
     14045       662  BUTH      H8             26.0106523288      -25.3818203653       -3.1909396964  BUTH      27              0.0000000000
     14046       662  BUTH      H9             26.9731327476      -23.7282654083       -3.3065794485  BUTH      27              0.0000000000
     14047       662  BUTH      LPO11          26.3975922408      -22.9921307981       -2.4892838886  BUTH      27              0.0000000000
     14048       662  BUTH      LPO12          26.5738996626      -23.4728708547       -2.9021828831  BUTH      27              0.0000000000
     14049       662  BUTH      LPO21          25.8395898045      -25.4206639733       -2.1204125754  BUTH      27              0.0000000000
     14050       662  BUTH      LPO22          25.2524489129      -25.3876028903       -2.4151216298  BUTH      27              0.0000000000
     14051       663  BUTH      C1             26.5328076787       13.4315739001       17.1958831299  BUTH      28              0.0000000000
     14052       663  BUTH      DC1            26.4256983061       13.4919426584       17.1707275234  BUTH      28              0.0000000000
     14053       663  BUTH      C2             25.4415920775       14.4572935369       17.4835053961  BUTH      28              0.0000000000
     14054       663  BUTH      DC2            25.3898504526       14.5031801296       17.5790602037  BUTH      28              0.0000000000
     14055       663  BUTH      C3             24.3373979438       14.4810026340       16.4090106986  BUTH      28              0.0000000000
     14056       663  BUTH      DC3            24.3431181103       14.4791633177       16.3905717450  BUTH      28              0.0000000000
     14057       663  BUTH      C4             24.7915773157       14.3767416106       15.1274566762  BUTH      28              0.0000000000
     14058       663  BUTH      DC4            24.7753055266       14.3855735945       15.1369955949  BUTH      28              0.0000000000
     14059       663  BUTH      O1             24.3908629050       13.3710445401       14.5209926258  BUTH      28              0.0000000000
     14060       663  BUTH      DO1            24.3892486566       13.4289453795       14.4923097672  BUTH      28              0.0000000000
     14061       663  BUTH      O2             24.8442340751       15.3769382953       14.4059629948  BUTH      28              0.0000000000
     14062       663  BUTH      DO2            24.8249845794       15.3912990059       14.4166049475  BUTH      28              0.0000000000
     14063       663  BUTH      H1             26.1521193578       12.3878791874       17.2058203880  BUTH      28              0.0000000000
     14064       663  BUTH      H2             27.0343391880       13.5922964704       16.2176421566  BUTH      28              0.0000000000
     14065       663  BUTH      H3             27.3332179825       13.4719354275       17.9653214271  BUTH      28              0.0000000000
     14066       663  BUTH      H4             25.9225643450       15.4586312182       17.5010987459  BUTH      28              0.0000000000
     14067       663  BUTH      H5             25.0193389759       14.2639423060       18.4927816815  BUTH      28              0.0000000000
     14068       663  BUTH      H6             23.7789109869       15.4267900645       16.5760420000  BUTH      28              0.0000000000
     14069       663  BUTH      H7             23.6071796167       13.6945378370       16.6963699128  BUTH      28              0.0000000000
     14070       663  BUTH      H8             24.8728638158       14.8960394940       13.5640504810  BUTH      28              0.0000000000
     14071       663  BUTH      H9             24.6183415978       13.3515333527       13.5792741127  BUTH      28              0.0000000000
     14072       663  BUTH      LPO11          24.1836186702       13.1805126451       14.7289527762  BUTH      28              0.0000000000
     14073       663  BUTH      LPO12          24.5207940710       13.3675391741       14.1960224664  BUTH      28              0.0000000000
     14074       663  BUTH      LPO21          24.5176800606       15.5027769232       14.4007557573  BUTH      28              0.0000000000
     14075       663  BUTH      LPO22          25.1746586968       15.4896951798       14.4305689769  BUTH      28              0.0000000000
     14076       664  BUTH      C1              9.8354859815       -4.1168693008       17.8341878546  BUTH      29              0.0000000000
     14077       664  BUTH      DC1             9.8925938649       -4.1281505980       17.8195606993  BUTH      29              0.0000000000
     14078       664  BUTH      C2             10.5782199134       -3.0034057877       18.5638159429  BUTH      29              0.0000000000
     14079       664  BUTH      DC2            10.5333576417       -2.9708687392       18.5544086237  BUTH      29              0.0000000000
     14080       664  BUTH      C3             12.0904067498       -2.9825116863       18.2527215875  BUTH      29              0.0000000000
     14081       664  BUTH      DC3            12.0967140546       -3.0106833680       18.2403803013  BUTH      29              0.0000000000
     14082       664  BUTH      C4             12.8291412119       -4.0960384690       18.5114902918  BUTH      29              0.0000000000
     14083       664  BUTH      DC4            12.8105871762       -4.0963908095       18.4854421355  BUTH      29              0.0000000000
     14084       664  BUTH      O1             13.2275844767       -4.6675889262       17.4753440670  BUTH      29              0.0000000000
     14085       664  BUTH      DO1            13.2467067572       -4.6669192358       17.4882324003  BUTH      29              0.0000000000
     14086       664  BUTH      O2             13.5414384724       -4.1327510279       19.5353566668  BUTH      29              0.0000000000
     14087       664  BUTH      DO2            13.5122735110       -4.1176364709       19.5161277284  BUTH      29              0.0000000000
     14088       664  BUTH      H1             10.0191494237       -4.0752291357       16.7392655572  BUTH      29              0.0000000000
     14089       664  BUTH      H2             10.1509574221       -5.1154821122       18.2050938068  BUTH      29              0.0000000000
     14090       664  BUTH      H3              8.7405626421       -4.0345440302       18.0035585453  BUTH      29              0.0000000000
     14091       664  BUTH      H4             10.4256449204       -3.1120899649       19.6589093741  BUTH      29              0.0000000000
     14092       664  BUTH      H5             10.1439036568       -2.0241849535       18.2691687858  BUTH      29              0.0000000000
     14093       664  BUTH      H6             12.4914936274       -2.1068532444       18.8065018789  BUTH      29              0.0000000000
     14094       664  BUTH      H7             12.1076021097       -2.6738459271       17.1855989288  BUTH      29              0.0000000000
     14095       664  BUTH      H8             14.2509180870       -4.7494256754       19.2960847386  BUTH      29              0.0000000000
     14096       664  BUTH      H9             13.7887810201       -5.4417983298       17.6322492582  BUTH      29              0.0000000000
     14097       664  BUTH      LPO11          13.1163774235       -4.4939384931       17.1925393315  BUTH      29              0.0000000000
     14098       664  BUTH      LPO12          13.4151908583       -4.9508310502       17.5594734005  BUTH      29              0.0000000000
     14099       664  BUTH      LPO21          13.7205953011       -3.8321549231       19.5286624526  BUTH      29              0.0000000000
     14100       664  BUTH      LPO22          13.3627669834       -4.3334486266       19.7596265330  BUTH      29              0.0000000000
     14101       665  BUTH      C1             22.2615462882       16.0534949702       -3.5661976926  BUTH      30              0.0000000000
     14102       665  BUTH      DC1            22.2734703054       16.0918344578       -3.6100293914  BUTH      30              0.0000000000
     14103       665  BUTH      C2             23.6099665401       16.6000197737       -3.1466742321  BUTH      30              0.0000000000
     14104       665  BUTH      DC2            23.6016075961       16.5690619511       -3.0959206506  BUTH      30              0.0000000000
     14105       665  BUTH      C3             23.9503444078       17.8990225861       -3.8927390327  BUTH      30              0.0000000000
     14106       665  BUTH      DC3            23.9242155375       17.8673122562       -3.9571002571  BUTH      30              0.0000000000
     14107       665  BUTH      C4             23.8252309071       17.7867930236       -5.2423116201  BUTH      30              0.0000000000
     14108       665  BUTH      DC4            23.8133176341       17.7904114140       -5.2599507838  BUTH      30              0.0000000000
     14109       665  BUTH      O1             22.9279684278       18.4544699670       -5.7857217472  BUTH      30              0.0000000000
     14110       665  BUTH      DO1            22.9655455065       18.4506345185       -5.8286830319  BUTH      30              0.0000000000
     14111       665  BUTH      O2             24.7750452961       17.5482208354       -5.9744906632  BUTH      30              0.0000000000
     14112       665  BUTH      DO2            24.7763336051       17.5512728837       -5.9758447052  BUTH      30              0.0000000000
     14113       665  BUTH      H1             21.4268346883       16.7295807267       -3.2824978573  BUTH      30              0.0000000000
     14114       665  BUTH      H2             22.2062405047       15.8364837632       -4.6543927150  BUTH      30              0.0000000000
     14115       665  BUTH      H3             22.1113922802       15.0923806881       -3.0295095982  BUTH      30              0.0000000000
     14116       665  BUTH      H4             24.3879964355       15.8355828903       -3.3579246362  BUTH      30              0.0000000000
     14117       665  BUTH      H5             23.6177172334       16.7813103442       -2.0505927313  BUTH      30              0.0000000000
     14118       665  BUTH      H6             24.9846524116       18.1549845218       -3.5780781965  BUTH      30              0.0000000000
     14119       665  BUTH      H7             23.3297362240       18.6905670775       -3.4209087663  BUTH      30              0.0000000000
     14120       665  BUTH      H8             24.4104606701       17.9883604745       -6.7582349764  BUTH      30              0.0000000000
     14121       665  BUTH      H9             22.9283975933       18.4216806066       -6.7541667243  BUTH      30              0.0000000000
     14122       665  BUTH      LPO11          22.7540690653       18.6396587921       -5.5449643780  BUTH      30              0.0000000000
     14123       665  BUTH      LPO12          22.9291086521       18.3978358245       -6.1311074356  BUTH      30              0.0000000000
     14124       665  BUTH      LPO21          25.0233135344       17.7752820259       -5.8780225461  BUTH      30              0.0000000000
     14125       665  BUTH      LPO22          24.7393756431       17.2113808238       -6.0626183118  BUTH      30              0.0000000000
     14126       666  BUTH      C1            -19.8032581222      -28.5983616317       15.3165429505  BUTH      31              0.0000000000
     14127       666  BUTH      DC1           -19.8036089975      -28.5592040051       15.3010237056  BUTH      31              0.0000000000
     14128       666  BUTH      C2            -18.4348600682      -29.2636325841       15.3529670710  BUTH      31              0.0000000000
     14129       666  BUTH      DC2           -18.4902989139      -29.2997545915       15.3803704605  BUTH      31              0.0000000000
     14130       666  BUTH      C3            -17.2673843935      -28.2698982805       15.1420291217  BUTH      31              0.0000000000
     14131       666  BUTH      DC3           -17.3228766851      -28.2484701063       15.0825864295  BUTH      31              0.0000000000
     14132       666  BUTH      C4            -17.3262570559      -27.4631367910       14.0484001722  BUTH      31              0.0000000000
     14133       666  BUTH      DC4           -17.3379668673      -27.4511441466       14.0420772378  BUTH      31              0.0000000000
     14134       666  BUTH      O1            -17.4778917584      -26.2464358871       14.2494046332  BUTH      31              0.0000000000
     14135       666  BUTH      DO1           -17.4667433956      -26.2583164612       14.2010829628  BUTH      31              0.0000000000
     14136       666  BUTH      O2            -16.9314419647      -27.8013046823       12.9184969388  BUTH      31              0.0000000000
     14137       666  BUTH      DO2           -16.9371175843      -27.8039562305       12.9225267668  BUTH      31              0.0000000000
     14138       666  BUTH      H1            -19.8626360442      -27.7751039030       16.0602108686  BUTH      31              0.0000000000
     14139       666  BUTH      H2            -19.9938028758      -28.1662054271       14.3109313390  BUTH      31              0.0000000000
     14140       666  BUTH      H3            -20.6112183685      -29.3272139315       15.5408096813  BUTH      31              0.0000000000
     14141       666  BUTH      H4            -18.3862783237      -30.0485908882       14.5682370059  BUTH      31              0.0000000000
     14142       666  BUTH      H5            -18.2838598196      -29.7709508293       16.3297721306  BUTH      31              0.0000000000
     14143       666  BUTH      H6            -16.3537221604      -28.9017798256       15.1256572766  BUTH      31              0.0000000000
     14144       666  BUTH      H7            -17.1893001443      -27.7155031525       16.1016487818  BUTH      31              0.0000000000
     14145       666  BUTH      H8            -16.7788837035      -26.9163332542       12.5518205833  BUTH      31              0.0000000000
     14146       666  BUTH      H9            -17.4770794178      -25.7016849472       13.4480265980  BUTH      31              0.0000000000
     14147       666  BUTH      LPO11         -17.4970727399      -26.1833697959       14.5931410992  BUTH      31              0.0000000000
     14148       666  BUTH      LPO12         -17.4879293404      -26.0750552966       13.9443998133  BUTH      31              0.0000000000
     14149       666  BUTH      LPO21         -16.6019204590      -27.9090647487       12.9664901195  BUTH      31              0.0000000000
     14150       666  BUTH      LPO22         -17.2212904092      -27.8938513767       12.7455143138  BUTH      31              0.0000000000
     14151       667  BUTH      C1            -18.4992074400        8.0818244949        4.6272796101  BUTH      32              0.0000000000
     14152       667  BUTH      DC1           -18.5135134452        8.0953438250        4.5819111459  BUTH      32              0.0000000000
     14153       667  BUTH      C2            -17.5058148847        8.2749244272        3.4894598197  BUTH      32              0.0000000000
     14154       667  BUTH      DC2           -17.4546201030        8.2605868241        3.5124346208  BUTH      32              0.0000000000
     14155       667  BUTH      C3            -18.0585720240        9.1671647318        2.3524279259  BUTH      32              0.0000000000
     14156       667  BUTH      DC3           -18.1072174990        9.1399049283        2.3416649954  BUTH      32              0.0000000000
     14157       667  BUTH      C4            -19.2968889517        8.8413807654        1.8829204784  BUTH      32              0.0000000000
     14158       667  BUTH      DC4           -19.2974440556        8.8289776360        1.8739509992  BUTH      32              0.0000000000
     14159       667  BUTH      O1            -20.1393097118        9.7423392524        1.9449919406  BUTH      32              0.0000000000
     14160       667  BUTH      DO1           -20.1386091298        9.6843784851        1.8702193079  BUTH      32              0.0000000000
     14161       667  BUTH      O2            -19.4721807933        8.1985569787        0.8626666340  BUTH      32              0.0000000000
     14162       667  BUTH      DO2           -19.4655278291        8.1823505994        0.8430719704  BUTH      32              0.0000000000
     14163       667  BUTH      H1            -18.8174545109        9.0530738387        5.0628419070  BUTH      32              0.0000000000
     14164       667  BUTH      H2            -19.4064815282        7.5482692200        4.2716203655  BUTH      32              0.0000000000
     14165       667  BUTH      H3            -18.0566763244        7.4687380883        5.4412896038  BUTH      32              0.0000000000
     14166       667  BUTH      H4            -17.2392667463        7.2781384240        3.0775244441  BUTH      32              0.0000000000
     14167       667  BUTH      H5            -16.5730371010        8.7275026098        3.8887336567  BUTH      32              0.0000000000
     14168       667  BUTH      H6            -17.2852862846        9.1283973214        1.5556549006  BUTH      32              0.0000000000
     14169       667  BUTH      H7            -17.9816738017       10.2035218257        2.7453294878  BUTH      32              0.0000000000
     14170       667  BUTH      H8            -20.2699647350        8.7100022925        0.6556292619  BUTH      32              0.0000000000
     14171       667  BUTH      H9            -20.9866462863        9.5268915488        1.5271833524  BUTH      32              0.0000000000
     14172       667  BUTH      LPO11         -19.9967559858       10.0301386774        2.0840959527  BUTH      32              0.0000000000
     14173       667  BUTH      LPO12         -20.4451716455        9.6291959170        1.8179208457  BUTH      32              0.0000000000
     14174       667  BUTH      LPO21         -19.2416328863        8.3254349423        0.6319077882  BUTH      32              0.0000000000
     14175       667  BUTH      LPO22         -19.6061481286        7.8925924538        0.9672537391  BUTH      32              0.0000000000
     14176       668  BUTH      C1             13.2394702260       -6.1811112385      -21.0235899391  BUTH      33              0.0000000000
     14177       668  BUTH      DC1            13.2245347391       -6.2173394120      -20.9642476653  BUTH      33              0.0000000000
     14178       668  BUTH      C2             14.6453230149       -6.5938282311      -20.5983262859  BUTH      33              0.0000000000
     14179       668  BUTH      DC2            14.6630289521       -6.5444652801      -20.6217648893  BUTH      33              0.0000000000
     14180       668  BUTH      C3             14.7636266306       -8.1033102754      -20.2817209855  BUTH      33              0.0000000000
     14181       668  BUTH      DC3            14.7031827220       -8.0894581191      -20.2251262713  BUTH      33              0.0000000000
     14182       668  BUTH      C4             13.8606624094       -8.5984483822      -19.3963168807  BUTH      33              0.0000000000
     14183       668  BUTH      DC4            13.8278637009       -8.5882393696      -19.3736941567  BUTH      33              0.0000000000
     14184       668  BUTH      O1             12.9404844053       -9.3200126259      -19.8153134371  BUTH      33              0.0000000000
     14185       668  BUTH      DO1            12.9368710120       -9.3172440516      -19.7491887419  BUTH      33              0.0000000000
     14186       668  BUTH      O2             14.0158136498       -8.5843185909      -18.1634493308  BUTH      33              0.0000000000
     14187       668  BUTH      DO2            14.0003946279       -8.5713708076      -18.1521763588  BUTH      33              0.0000000000
     14188       668  BUTH      H1             12.9172782786       -6.7520404654      -21.9205588173  BUTH      33              0.0000000000
     14189       668  BUTH      H2             12.4915320406       -6.3738009503      -20.2249785531  BUTH      33              0.0000000000
     14190       668  BUTH      H3             13.2054632721       -5.1036805468      -21.2924907239  BUTH      33              0.0000000000
     14191       668  BUTH      H4             14.9517098627       -6.0017326078      -19.7095794868  BUTH      33              0.0000000000
     14192       668  BUTH      H5             15.3647428051       -6.3422925887      -21.4067110866  BUTH      33              0.0000000000
     14193       668  BUTH      H6             15.8081118358       -8.2563028970      -19.9353614681  BUTH      33              0.0000000000
     14194       668  BUTH      H7             14.7341169022       -8.6126005914      -21.2686726307  BUTH      33              0.0000000000
     14195       668  BUTH      H8             13.5992138987       -9.4435274233      -17.9928479539  BUTH      33              0.0000000000
     14196       668  BUTH      H9             12.3813898631       -9.7036136151      -19.1230529557  BUTH      33              0.0000000000
     14197       668  BUTH      LPO11          12.9668548555       -9.3582758223      -20.1622147590  BUTH      33              0.0000000000
     14198       668  BUTH      LPO12          12.7367575144       -9.4208247663      -19.5491701180  BUTH      33              0.0000000000
     14199       668  BUTH      LPO21          14.3532505988       -8.6623961932      -18.1130489992  BUTH      33              0.0000000000
     14200       668  BUTH      LPO22          13.7702888758       -8.3658469120      -18.0430844236  BUTH      33              0.0000000000
     14201       669  BUTH      C1             -5.6935525479       -4.6732597729       23.3602641313  BUTH      34              0.0000000000
     14202       669  BUTH      DC1            -5.6364668366       -4.6535626237       23.3542950548  BUTH      34              0.0000000000
     14203       669  BUTH      C2             -4.6340042991       -3.6790075698       23.8147989334  BUTH      34              0.0000000000
     14204       669  BUTH      DC2            -4.6322004428       -3.6843124606       23.9119811469  BUTH      34              0.0000000000
     14205       669  BUTH      C3             -4.2638340161       -2.6797938344       22.6980245398  BUTH      34              0.0000000000
     14206       669  BUTH      DC3            -4.2649862656       -2.7203078169       22.6964465000  BUTH      34              0.0000000000
     14207       669  BUTH      C4             -4.0040138709       -3.2158831732       21.4705870080  BUTH      34              0.0000000000
     14208       669  BUTH      DC4            -3.9991640435       -3.2188331575       21.4988312359  BUTH      34              0.0000000000
     14209       669  BUTH      O1             -4.8156649145       -2.9981884805       20.5706485929  BUTH      34              0.0000000000
     14210       669  BUTH      DO1            -4.7186246539       -3.0071018105       20.5593113543  BUTH      34              0.0000000000
     14211       669  BUTH      O2             -2.9083328453       -3.2904417292       21.0289768016  BUTH      34              0.0000000000
     14212       669  BUTH      DO2            -2.9074535724       -3.2849372077       21.0413411325  BUTH      34              0.0000000000
     14213       669  BUTH      H1             -6.6171691600       -4.1426793356       23.0444512836  BUTH      34              0.0000000000
     14214       669  BUTH      H2             -5.3517104993       -5.2714781451       22.4887139063  BUTH      34              0.0000000000
     14215       669  BUTH      H3             -5.9802911095       -5.3734134560       24.1738283987  BUTH      34              0.0000000000
     14216       669  BUTH      H4             -3.7215351750       -4.2319037529       24.1246810219  BUTH      34              0.0000000000
     14217       669  BUTH      H5             -5.0024127310       -3.1181100014       24.7002311132  BUTH      34              0.0000000000
     14218       669  BUTH      H6             -3.3970020919       -2.1033329288       23.0861176224  BUTH      34              0.0000000000
     14219       669  BUTH      H7             -5.0950856278       -1.9427670408       22.6864805562  BUTH      34              0.0000000000
     14220       669  BUTH      H8             -3.2203703190       -3.2387295237       20.1119934524  BUTH      34              0.0000000000
     14221       669  BUTH      H9             -4.5154557926       -3.2719483441       19.6909378334  BUTH      34              0.0000000000
     14222       669  BUTH      LPO11          -5.0783239842       -2.8009294107       20.6914752144  BUTH      34              0.0000000000
     14223       669  BUTH      LPO12          -4.7108255518       -3.1531183833       20.2748354200  BUTH      34              0.0000000000
     14224       669  BUTH      LPO21          -2.7691646350       -2.9728680045       21.0767171264  BUTH      34              0.0000000000
     14225       669  BUTH      LPO22          -2.8214858446       -3.6282887634       21.0575596631  BUTH      34              0.0000000000
     14226       670  BUTH      C1             -5.8855817067        0.2200636792        0.0811233008  BUTH      35              0.0000000000
     14227       670  BUTH      DC1            -5.8395684441        0.1716367013        0.0126818699  BUTH      35              0.0000000000
     14228       670  BUTH      C2             -5.2554866222        0.7006097405       -1.2197481955  BUTH      35              0.0000000000
     14229       670  BUTH      DC2            -5.2658881118        0.7267798411       -1.2565735671  BUTH      35              0.0000000000
     14230       670  BUTH      C3             -4.8924366689       -0.4648780081       -2.1633323991  BUTH      35              0.0000000000
     14231       670  BUTH      DC3            -4.8491497759       -0.5389970918       -2.1432826649  BUTH      35              0.0000000000
     14232       670  BUTH      C4             -4.1266987787       -1.4370693837       -1.5957407767  BUTH      35              0.0000000000
     14233       670  BUTH      DC4            -4.1110148313       -1.4774449973       -1.6029741911  BUTH      35              0.0000000000
     14234       670  BUTH      O1             -4.6681086286       -2.5554484807       -1.4940434089  BUTH      35              0.0000000000
     14235       670  BUTH      DO1            -4.6050126174       -2.5943953830       -1.5148094501  BUTH      35              0.0000000000
     14236       670  BUTH      O2             -2.9228037756       -1.5684148849       -1.8756404527  BUTH      35              0.0000000000
     14237       670  BUTH      DO2            -2.9093878700       -1.5839343243       -1.9000787534  BUTH      35              0.0000000000
     14238       670  BUTH      H1             -6.8487414899       -0.3037157244       -0.0985969543  BUTH      35              0.0000000000
     14239       670  BUTH      H2             -5.2210277643       -0.4689043518        0.6450489258  BUTH      35              0.0000000000
     14240       670  BUTH      H3             -6.1064626077        1.0783315757        0.7511299019  BUTH      35              0.0000000000
     14241       670  BUTH      H4             -4.3459051181        1.2912702106       -0.9787031865  BUTH      35              0.0000000000
     14242       670  BUTH      H5             -5.9555301442        1.3944927347       -1.7323752135  BUTH      35              0.0000000000
     14243       670  BUTH      H6             -4.3995717438        0.0180866961       -3.0340506441  BUTH      35              0.0000000000
     14244       670  BUTH      H7             -5.8693510297       -0.8120332048       -2.5626350426  BUTH      35              0.0000000000
     14245       670  BUTH      H8             -2.8614986828       -2.4676934629       -1.5172555692  BUTH      35              0.0000000000
     14246       670  BUTH      H9             -4.0725758611       -3.2643460964       -1.2080960476  BUTH      35              0.0000000000
     14247       670  BUTH      LPO11          -4.9931071847       -2.5433182654       -1.6233832574  BUTH      35              0.0000000000
     14248       670  BUTH      LPO12          -4.4470822182       -2.7823518004       -1.3451736358  BUTH      35              0.0000000000
     14249       670  BUTH      LPO21          -2.9144076282       -1.6305664704       -2.2199755876  BUTH      35              0.0000000000
     14250       670  BUTH      LPO22          -2.7509284206       -1.3851030754       -1.6320103174  BUTH      35              0.0000000000
     14251       671  BUTH      C1             18.8365119434       12.8619624643       -7.6624199904  BUTH      36              0.0000000000
     14252       671  BUTH      DC1            18.7798091970       12.8757125234       -7.6875347941  BUTH      36              0.0000000000
     14253       671  BUTH      C2             18.1508511576       11.9998644632       -8.7104805977  BUTH      36              0.0000000000
     14254       671  BUTH      DC2            18.1948604706       11.9593672118       -8.7247309898  BUTH      36              0.0000000000
     14255       671  BUTH      C3             16.9638691230       12.7178796925       -9.3826240322  BUTH      36              0.0000000000
     14256       671  BUTH      DC3            16.9329109623       12.7398806269       -9.3271244317  BUTH      36              0.0000000000
     14257       671  BUTH      C4             16.0662522654       13.2160203341       -8.4917896041  BUTH      36              0.0000000000
     14258       671  BUTH      DC4            16.0586973779       13.2245937345       -8.4793481222  BUTH      36              0.0000000000
     14259       671  BUTH      O1             15.9683436493       14.4516651580       -8.4440905961  BUTH      36              0.0000000000
     14260       671  BUTH      DO1            15.9103817251       14.4217817746       -8.4222891908  BUTH      36              0.0000000000
     14261       671  BUTH      O2             15.0204184589       12.6374673714       -8.2058038420  BUTH      36              0.0000000000
     14262       671  BUTH      DO2            15.0147786254       12.6383177844       -8.2087750012  BUTH      36              0.0000000000
     14263       671  BUTH      H1             19.2248172764       13.8059995198       -8.1009790019  BUTH      36              0.0000000000
     14264       671  BUTH      H2             18.1369413815       13.1209361250       -6.8391006889  BUTH      36              0.0000000000
     14265       671  BUTH      H3             19.6951185497       12.3244971763       -7.2060793711  BUTH      36              0.0000000000
     14266       671  BUTH      H4             17.7785024196       11.0781662560       -8.2143457029  BUTH      36              0.0000000000
     14267       671  BUTH      H5             18.8834864414       11.6970344802       -9.4888510380  BUTH      36              0.0000000000
     14268       671  BUTH      H6             16.5113897155       11.9709334242      -10.0693952158  BUTH      36              0.0000000000
     14269       671  BUTH      H7             17.4159370022       13.4698417258      -10.0641728075  BUTH      36              0.0000000000
     14270       671  BUTH      H8             14.5235525184       13.4486350145       -8.0159847385  BUTH      36              0.0000000000
     14271       671  BUTH      H9             15.2579307685       14.7789691541       -7.8721232606  BUTH      36              0.0000000000
     14272       671  BUTH      LPO11          16.1882789229       14.5981232426       -8.6736085800  BUTH      36              0.0000000000
     14273       671  BUTH      LPO12          15.7295112147       14.5436965970       -8.2053663150  BUTH      36              0.0000000000
     14274       671  BUTH      LPO21          14.8818604604       12.5419892565       -8.5127005847  BUTH      36              0.0000000000
     14275       671  BUTH      LPO22          15.0711986079       12.5107345091       -7.8835304207  BUTH      36              0.0000000000
     14276       672  BUTH      C1             17.6787136245       -5.6648838144      -18.5789302720  BUTH      37              0.0000000000
     14277       672  BUTH      DC1            17.7002737081       -5.6309580457      -18.5489774110  BUTH      37              0.0000000000
     14278       672  BUTH      C2             18.7216598071       -6.2127005513      -17.6122569578  BUTH      37              0.0000000000
     14279       672  BUTH      DC2            18.6649777374       -6.2524937163      -17.5688807784  BUTH      37              0.0000000000
     14280       672  BUTH      C3             19.7573091804       -5.1535935202      -17.1791656776  BUTH      37              0.0000000000
     14281       672  BUTH      DC3            19.7358766441       -5.1307480098      -17.1987894454  BUTH      37              0.0000000000
     14282       672  BUTH      C4             20.3525360596       -4.4681343473      -18.1969375047  BUTH      37              0.0000000000
     14283       672  BUTH      DC4            20.3210799560       -4.4442222835      -18.1734651989  BUTH      37              0.0000000000
     14284       672  BUTH      O1             20.1520053129       -3.2419331553      -18.1524910016  BUTH      37              0.0000000000
     14285       672  BUTH      DO1            20.1833350418       -3.2291867184      -18.1594125884  BUTH      37              0.0000000000
     14286       672  BUTH      O2             21.4228325934       -4.8041376138      -18.6385516118  BUTH      37              0.0000000000
     14287       672  BUTH      DO2            21.3949525027       -4.7800856359      -18.6096583366  BUTH      37              0.0000000000
     14288       672  BUTH      H1             17.1448600059       -4.7853451508      -18.1597250073  BUTH      37              0.0000000000
     14289       672  BUTH      H2             18.1484159324       -5.3592537894      -19.5382482757  BUTH      37              0.0000000000
     14290       672  BUTH      H3             16.9270946281       -6.4461825393      -18.8217515758  BUTH      37              0.0000000000
     14291       672  BUTH      H4             19.2623225984       -7.0423199837      -18.1159794468  BUTH      37              0.0000000000
     14292       672  BUTH      H5             18.2261978994       -6.6393182434      -16.7140165427  BUTH      37              0.0000000000
     14293       672  BUTH      H6             20.5119299754       -5.7052058536      -16.5786723055  BUTH      37              0.0000000000
     14294       672  BUTH      H7             19.2207898665       -4.5238009188      -16.4376609203  BUTH      37              0.0000000000
     14295       672  BUTH      H8             21.6994707093       -4.0184525198      -19.1356132638  BUTH      37              0.0000000000
     14296       672  BUTH      H9             20.6255780032       -2.7334138680      -18.8278413116  BUTH      37              0.0000000000
     14297       672  BUTH      LPO11          19.9531258793       -3.1631236697      -17.8754783017  BUTH      37              0.0000000000
     14298       672  BUTH      LPO12          20.3122693922       -3.0846182849      -18.4209448271  BUTH      37              0.0000000000
     14299       672  BUTH      LPO21          21.6399392900       -4.7837503452      -18.3647833858  BUTH      37              0.0000000000
     14300       672  BUTH      LPO22          21.3438978926       -5.0198052650      -18.9026666950  BUTH      37              0.0000000000
     14301       673  BUTH      C1              6.9820729379        8.0229054628       17.6312245490  BUTH      38              0.0000000000
     14302       673  BUTH      DC1             7.0065719803        8.0471386300       17.6286402397  BUTH      38              0.0000000000
     14303       673  BUTH      C2              6.7132963645        8.6341902020       16.2606839390  BUTH      38              0.0000000000
     14304       673  BUTH      DC2             6.6958154427        8.5658289106       16.2465598074  BUTH      38              0.0000000000
     14305       673  BUTH      C3              7.7209613534        9.7299391769       15.8720373937  BUTH      38              0.0000000000
     14306       673  BUTH      DC3             7.7383186186        9.7325689995       15.9116588345  BUTH      38              0.0000000000
     14307       673  BUTH      C4              7.9941199650       10.6516694421       16.8399679866  BUTH      38              0.0000000000
     14308       673  BUTH      DC4             7.9977710409       10.6334187420       16.8449337902  BUTH      38              0.0000000000
     14309       673  BUTH      O1              9.0846966709       10.4765391169       17.4060259867  BUTH      38              0.0000000000
     14310       673  BUTH      DO1             9.0746074580       10.5190234794       17.4000668222  BUTH      38              0.0000000000
     14311       673  BUTH      O2              7.6359448283       11.8267899068       16.7485955254  BUTH      38              0.0000000000
     14312       673  BUTH      DO2             7.6414567917       11.8120934250       16.7450105490  BUTH      38              0.0000000000
     14313       673  BUTH      H1              7.9956942819        7.5710296404       17.6831958113  BUTH      38              0.0000000000
     14314       673  BUTH      H2              6.9250356741        8.7958725179       18.4272080191  BUTH      38              0.0000000000
     14315       673  BUTH      H3              6.2353829512        7.2350521826       17.8679992799  BUTH      38              0.0000000000
     14316       673  BUTH      H4              5.7083887899        9.1079159883       16.2687861598  BUTH      38              0.0000000000
     14317       673  BUTH      H5              6.6732581117        7.8589058238       15.4659185197  BUTH      38              0.0000000000
     14318       673  BUTH      H6              7.3070710778       10.1990772482       14.9539277544  BUTH      38              0.0000000000
     14319       673  BUTH      H7              8.6102469297        9.1703419193       15.5110068202  BUTH      38              0.0000000000
     14320       673  BUTH      H8              8.4301628666       12.2488357233       17.1119067370  BUTH      38              0.0000000000
     14321       673  BUTH      H9              9.3623849132       11.2084737638       17.9770968341  BUTH      38              0.0000000000
     14322       673  BUTH      LPO11           9.2455895980       10.1961953048       17.2717843650  BUTH      38              0.0000000000
     14323       673  BUTH      LPO12           9.1341729465       10.7231007782       17.6494586168  BUTH      38              0.0000000000
     14324       673  BUTH      LPO21           7.6703667878       11.9049924889       16.4091850293  BUTH      38              0.0000000000
     14325       673  BUTH      LPO22           7.4112190028       11.8729485410       17.0129204842  BUTH      38              0.0000000000
     14326       674  BUTH      C1             17.5910987371        0.3208409257      -19.1800126712  BUTH      39              0.0000000000
     14327       674  BUTH      DC1            17.5678390152        0.3202922613      -19.1859448933  BUTH      39              0.0000000000
     14328       674  BUTH      C2             18.1034373572       -1.0855103044      -18.8942443966  BUTH      39              0.0000000000
     14329       674  BUTH      DC2            18.1211252044       -1.0304529961      -18.8288508598  BUTH      39              0.0000000000
     14330       674  BUTH      C3             17.9677411161       -2.0864027384      -20.0748031973  BUTH      39              0.0000000000
     14331       674  BUTH      DC3            17.9336316843       -2.0443951182      -20.0598856142  BUTH      39              0.0000000000
     14332       674  BUTH      C4             16.7873969597       -2.1883766308      -20.7477315863  BUTH      39              0.0000000000
     14333       674  BUTH      DC4            16.8034576807       -2.1839358874      -20.7219054803  BUTH      39              0.0000000000
     14334       674  BUTH      O1             16.7950686089       -1.6732270132      -21.8706110326  BUTH      39              0.0000000000
     14335       674  BUTH      DO1            16.7747107635       -1.7106468005      -21.8387851713  BUTH      39              0.0000000000
     14336       674  BUTH      O2             15.9433490618       -3.0920187794      -20.5370336789  BUTH      39              0.0000000000
     14337       674  BUTH      DO2            15.9563692035       -3.0936384020      -20.5107274989  BUTH      39              0.0000000000
     14338       674  BUTH      H1             18.1326457304        0.7547300123      -20.0476463005  BUTH      39              0.0000000000
     14339       674  BUTH      H2             16.5083982276        0.3157166839      -19.4291197719  BUTH      39              0.0000000000
     14340       674  BUTH      H3             17.7498791157        0.9908425805      -18.3081138388  BUTH      39              0.0000000000
     14341       674  BUTH      H4             17.5973124020       -1.5114703299      -18.0016545768  BUTH      39              0.0000000000
     14342       674  BUTH      H5             19.1816496626       -1.0129203499      -18.6363492168  BUTH      39              0.0000000000
     14343       674  BUTH      H6             18.2440692768       -3.0806681465      -19.6632208266  BUTH      39              0.0000000000
     14344       674  BUTH      H7             18.8264547124       -1.8407119038      -20.7355361036  BUTH      39              0.0000000000
     14345       674  BUTH      H8             15.4628457642       -3.0192876771      -21.3765137368  BUTH      39              0.0000000000
     14346       674  BUTH      H9             15.9758351422       -1.8097163038      -22.3697985732  BUTH      39              0.0000000000
     14347       674  BUTH      LPO11          17.1094746992       -1.5342283323      -21.9363999152  BUTH      39              0.0000000000
     14348       674  BUTH      LPO12          16.4821492038       -1.7123950922      -22.0224244297  BUTH      39              0.0000000000
     14349       674  BUTH      LPO21          16.1166709979       -3.3919177308      -20.5872345295  BUTH      39              0.0000000000
     14350       674  BUTH      LPO22          15.7111902355       -2.9501383096      -20.3168696226  BUTH      39              0.0000000000
     14351       675  BUTH      C1            -27.5553311334        1.6526771974      -25.1610312147  BUTH      40              0.0000000000
     14352       675  BUTH      DC1           -27.5258323758        1.6735296667      -25.1524194085  BUTH      40              0.0000000000
     14353       675  BUTH      C2            -26.6152171888        0.9553334478      -24.1845793945  BUTH      40              0.0000000000
     14354       675  BUTH      DC2           -26.6694179489        0.9026467249      -24.1721456400  BUTH      40              0.0000000000
     14355       675  BUTH      C3            -25.5529967610        1.9076345078      -23.5938908063  BUTH      40              0.0000000000
     14356       675  BUTH      DC3           -25.5502436196        1.9192675469      -23.6646950233  BUTH      40              0.0000000000
     14357       675  BUTH      C4            -24.8022384473        2.5888223957      -24.4997270096  BUTH      40              0.0000000000
     14358       675  BUTH      DC4           -24.8020549765        2.5978569086      -24.4978068906  BUTH      40              0.0000000000
     14359       675  BUTH      O1            -24.9927906381        3.8155420496      -24.5576213154  BUTH      40              0.0000000000
     14360       675  BUTH      DO1           -24.9448857523        3.8007760018      -24.5732900498  BUTH      40              0.0000000000
     14361       675  BUTH      O2            -23.6826821360        2.1991847934      -24.8600220817  BUTH      40              0.0000000000
     14362       675  BUTH      DO2           -23.6839362696        2.2042490098      -24.8411765411  BUTH      40              0.0000000000
     14363       675  BUTH      H1            -28.0604343114        2.5149387203      -24.6755450174  BUTH      40              0.0000000000
     14364       675  BUTH      H2            -27.0034094546        2.0361867739      -26.0456915255  BUTH      40              0.0000000000
     14365       675  BUTH      H3            -28.3389758128        0.9544701303      -25.5253510025  BUTH      40              0.0000000000
     14366       675  BUTH      H4            -26.1027195456        0.1206659459      -24.7089812700  BUTH      40              0.0000000000
     14367       675  BUTH      H5            -27.2016862407        0.5185597247      -23.3481561953  BUTH      40              0.0000000000
     14368       675  BUTH      H6            -24.9207709359        1.2681968331      -22.9414101811  BUTH      40              0.0000000000
     14369       675  BUTH      H7            -26.1024297447        2.5566656972      -22.8789062523  BUTH      40              0.0000000000
     14370       675  BUTH      H8            -23.3986844522        3.0041567625      -25.3207448233  BUTH      40              0.0000000000
     14371       675  BUTH      H9            -24.3809470390        4.2914995149      -25.1390616837  BUTH      40              0.0000000000
     14372       675  BUTH      LPO11         -25.2382835559        3.9095875055      -24.3265614108  BUTH      40              0.0000000000
     14373       675  BUTH      LPO12         -24.7840064446        3.9578166984      -24.7998342071  BUTH      40              0.0000000000
     14374       675  BUTH      LPO21         -23.4844254486        2.2156331275      -24.5720572606  BUTH      40              0.0000000000
     14375       675  BUTH      LPO22         -23.7440419450        1.9870131243      -25.1315329593  BUTH      40              0.0000000000
     14376       676  BUTH      C1             16.9339866000        4.7916856009       -0.5650258334  BUTH      41              0.0000000000
     14377       676  BUTH      DC1            16.8495120328        4.7882431283       -0.4859797290  BUTH      41              0.0000000000
     14378       676  BUTH      C2             16.4679308533        5.7455430329        0.5270103746  BUTH      41              0.0000000000
     14379       676  BUTH      DC2            16.5222787478        5.8047195324        0.5963059199  BUTH      41              0.0000000000
     14380       676  BUTH      C3             15.0727329892        5.3672566847        1.0595762023  BUTH      41              0.0000000000
     14381       676  BUTH      DC3            15.0605711689        5.3607017354        1.0138405541  BUTH      41              0.0000000000
     14382       676  BUTH      C4             14.1414305513        5.1711884109        0.0845315129  BUTH      41              0.0000000000
     14383       676  BUTH      DC4            14.1409783161        5.1558994871        0.0848230576  BUTH      41              0.0000000000
     14384       676  BUTH      O1             13.6923377420        4.0099541721       -0.0009717315  BUTH      41              0.0000000000
     14385       676  BUTH      DO1            13.6600423339        4.0295830802       -0.0127278900  BUTH      41              0.0000000000
     14386       676  BUTH      O2             13.3813888207        6.0953582282       -0.2728858937  BUTH      41              0.0000000000
     14387       676  BUTH      DO2            13.3900230236        6.0899874996       -0.2663810471  BUTH      41              0.0000000000
     14388       676  BUTH      H1             16.9960017234        3.7464471378       -0.1936073634  BUTH      41              0.0000000000
     14389       676  BUTH      H2             16.2553533045        4.8022594664       -1.4446087148  BUTH      41              0.0000000000
     14390       676  BUTH      H3             17.9423892389        5.0684029982       -0.9403558218  BUTH      41              0.0000000000
     14391       676  BUTH      H4             16.4416869363        6.7667582821        0.0902591042  BUTH      41              0.0000000000
     14392       676  BUTH      H5             17.2097508827        5.7327810678        1.3539693677  BUTH      41              0.0000000000
     14393       676  BUTH      H6             14.7753808223        6.1857795016        1.7494479930  BUTH      41              0.0000000000
     14394       676  BUTH      H7             15.2288151961        4.4977923767        1.7333648649  BUTH      41              0.0000000000
     14395       676  BUTH      H8             12.6078637951        5.5726843294       -0.5362697030  BUTH      41              0.0000000000
     14396       676  BUTH      H9             12.9504251478        3.9113088521       -0.6164356244  BUTH      41              0.0000000000
     14397       676  BUTH      LPO11          13.8419208277        3.8056629149        0.2406684612  BUTH      41              0.0000000000
     14398       676  BUTH      LPO12          13.4566002767        3.9914731796       -0.2590149456  BUTH      41              0.0000000000
     14399       676  BUTH      LPO21          13.2640818100        6.2358067095        0.0254650563  BUTH      41              0.0000000000
     14400       676  BUTH      LPO22          13.5009221641        6.1938094722       -0.5867634691  BUTH      41              0.0000000000
     14401       677  BUTH      C1              0.6922920864      -14.8301870104      -21.0655256211  BUTH      42              0.0000000000
     14402       677  BUTH      DC1             0.6958921702      -14.8399720720      -21.0386114421  BUTH      42              0.0000000000
     14403       677  BUTH      C2              1.6098222238      -15.9033302188      -21.6441511967  BUTH      42              0.0000000000
     14404       677  BUTH      DC2             1.6700281746      -15.8324862092      -21.6333106788  BUTH      42              0.0000000000
     14405       677  BUTH      C3              0.8347233105      -17.1390511240      -22.1598249588  BUTH      42              0.0000000000
     14406       677  BUTH      DC3             0.8351516607      -17.1145066470      -22.0940639340  BUTH      42              0.0000000000
     14407       677  BUTH      C4              0.0354092970      -17.7648420771      -21.2531342466  BUTH      42              0.0000000000
     14408       677  BUTH      DC4             0.0539982451      -17.7538992145      -21.2429500494  BUTH      42              0.0000000000
     14409       677  BUTH      O1             -1.1897119214      -17.6438077499      -21.3488681849  BUTH      42              0.0000000000
     14410       677  BUTH      DO1            -1.1489439359      -17.6928667938      -21.2983092884  BUTH      42              0.0000000000
     14411       677  BUTH      O2              0.4152221037      -18.6378425507      -20.4834284117  BUTH      42              0.0000000000
     14412       677  BUTH      DO2             0.4278387035      -18.6332146517      -20.4740735785  BUTH      42              0.0000000000
     14413       677  BUTH      H1             -0.0601671361      -14.5272182680      -21.8246936262  BUTH      42              0.0000000000
     14414       677  BUTH      H2              0.1368543855      -15.2092608944      -20.1811541204  BUTH      42              0.0000000000
     14415       677  BUTH      H3              1.2596819149      -13.9205561764      -20.7740440158  BUTH      42              0.0000000000
     14416       677  BUTH      H4              2.3431142617      -16.2346614727      -20.8781072100  BUTH      42              0.0000000000
     14417       677  BUTH      H5              2.1816949261      -15.4760016673      -22.4954284272  BUTH      42              0.0000000000
     14418       677  BUTH      H6              1.6055534282      -17.8338290161      -22.5565939237  BUTH      42              0.0000000000
     14419       677  BUTH      H7              0.2912457332      -16.8035398521      -23.0688823328  BUTH      42              0.0000000000
     14420       677  BUTH      H8             -0.4750331320      -18.9975843885      -20.3458368953  BUTH      42              0.0000000000
     14421       677  BUTH      H9             -1.7016148867      -18.1701031618      -20.7164683956  BUTH      42              0.0000000000
     14422       677  BUTH      LPO11          -1.2689205622      -17.4411351120      -21.6230028108  BUTH      42              0.0000000000
     14423       677  BUTH      LPO12          -1.3480403626      -17.8230132071      -21.0932952818  BUTH      42              0.0000000000
     14424       677  BUTH      LPO21           0.5595207200      -18.8833050352      -20.6869623844  BUTH      42              0.0000000000
     14425       677  BUTH      LPO22           0.4724737440      -18.4738303556      -20.1795826456  BUTH      42              0.0000000000
     14426       678  BUTH      C1             18.4236664959      -27.9213390936      -23.0861230325  BUTH      43              0.0000000000
     14427       678  BUTH      DC1            18.4647687975      -27.9342273898      -23.0859751094  BUTH      43              0.0000000000
     14428       678  BUTH      C2             18.8729647178      -28.8839614151      -21.9918955083  BUTH      43              0.0000000000
     14429       678  BUTH      DC2            18.7984380315      -28.9187599864      -21.9808967302  BUTH      43              0.0000000000
     14430       678  BUTH      C3             20.2020131171      -28.4779066715      -21.3153085144  BUTH      43              0.0000000000
     14431       678  BUTH      DC3            20.2045046947      -28.4830591639      -21.3700619900  BUTH      43              0.0000000000
     14432       678  BUTH      C4             21.2256984203      -28.2329260767      -22.1765833410  BUTH      43              0.0000000000
     14433       678  BUTH      DC4            21.2157496864      -28.2388120729      -22.1772423943  BUTH      43              0.0000000000
     14434       678  BUTH      O1             21.6373883853      -27.0667671088      -22.2356115552  BUTH      43              0.0000000000
     14435       678  BUTH      DO1            21.6729852173      -27.1201649199      -22.2477872056  BUTH      43              0.0000000000
     14436       678  BUTH      O2             22.0419369485      -29.0941332149      -22.5007466712  BUTH      43              0.0000000000
     14437       678  BUTH      DO2            22.0341128872      -29.0990657453      -22.4973876734  BUTH      43              0.0000000000
     14438       678  BUTH      H1             18.2945378036      -26.8935308932      -22.6845547517  BUTH      43              0.0000000000
     14439       678  BUTH      H2             19.1659856152      -27.8703698669      -23.9111596753  BUTH      43              0.0000000000
     14440       678  BUTH      H3             17.4475764681      -28.2330873926      -23.5155205821  BUTH      43              0.0000000000
     14441       678  BUTH      H4             18.9999012504      -29.8830973034      -22.4608684218  BUTH      43              0.0000000000
     14442       678  BUTH      H5             18.0823217036      -28.9701386865      -21.2161519277  BUTH      43              0.0000000000
     14443       678  BUTH      H6             20.4463365539      -29.3025146820      -20.6119958602  BUTH      43              0.0000000000
     14444       678  BUTH      H7             19.9679411053      -27.6260686486      -20.6415850727  BUTH      43              0.0000000000
     14445       678  BUTH      H8             22.7518343592      -28.4772312391      -22.7381863867  BUTH      43              0.0000000000
     14446       678  BUTH      H9             22.4165774483      -26.9429029745      -22.7981798446  BUTH      43              0.0000000000
     14447       678  BUTH      LPO11          21.4550965863      -26.8642031409      -22.0159810953  BUTH      43              0.0000000000
     14448       678  BUTH      LPO12          21.8992893618      -27.0438289657      -22.4666563995  BUTH      43              0.0000000000
     14449       678  BUTH      LPO21          22.1626214602      -29.2233936438      -22.1987086104  BUTH      43              0.0000000000
     14450       678  BUTH      LPO22          21.9384031040      -29.2032618305      -22.8167714935  BUTH      43              0.0000000000
     14451       679  BUTH      C1             17.0723126809      -10.6892568204        7.9985967826  BUTH      44              0.0000000000
     14452       679  BUTH      DC1            17.0928958278      -10.7153856652        7.9653453578  BUTH      44              0.0000000000
     14453       679  BUTH      C2             17.9578027715      -10.8712913862        6.7712465159  BUTH      44              0.0000000000
     14454       679  BUTH      DC2            17.9661810987      -10.7921722040        6.7494632137  BUTH      44              0.0000000000
     14455       679  BUTH      C3             17.6525758442      -12.1838235366        6.0238263126  BUTH      44              0.0000000000
     14456       679  BUTH      DC3            17.6367782631      -12.1761822145        6.0447426485  BUTH      44              0.0000000000
     14457       679  BUTH      C4             17.5880225731      -13.2983990696        6.8062299424  BUTH      44              0.0000000000
     14458       679  BUTH      DC4            17.5893416810      -13.2700895757        6.7970659365  BUTH      44              0.0000000000
     14459       679  BUTH      O1             16.4635219510      -13.8176032898        6.8547901192  BUTH      44              0.0000000000
     14460       679  BUTH      DO1            16.5142403314      -13.8358142838        6.8467266703  BUTH      44              0.0000000000
     14461       679  BUTH      O2             18.5476640364      -14.0654014207        6.9220494414  BUTH      44              0.0000000000
     14462       679  BUTH      DO2            18.5395496378      -14.0467357705        6.9211743333  BUTH      44              0.0000000000
     14463       679  BUTH      H1             15.9925470963      -10.7292701990        7.7400891168  BUTH      44              0.0000000000
     14464       679  BUTH      H2             17.2618502918      -11.4838857277        8.7515651715  BUTH      44              0.0000000000
     14465       679  BUTH      H3             17.2595667526       -9.7124792433        8.4937356294  BUTH      44              0.0000000000
     14466       679  BUTH      H4             19.0220792920      -10.8957772039        7.0891095883  BUTH      44              0.0000000000
     14467       679  BUTH      H5             17.8407347348      -10.0052342955        6.0852718873  BUTH      44              0.0000000000
     14468       679  BUTH      H6             18.4380460959      -12.2786935519        5.2438537706  BUTH      44              0.0000000000
     14469       679  BUTH      H7             16.7193327803      -11.9805671720        5.4563183973  BUTH      44              0.0000000000
     14470       679  BUTH      H8             18.0561498301      -14.8848238473        7.0889646046  BUTH      44              0.0000000000
     14471       679  BUTH      H9             16.4310820026      -14.6533633407        7.3440894009  BUTH      44              0.0000000000
     14472       679  BUTH      LPO11          16.2386851386      -13.6347906524        6.6585047470  BUTH      44              0.0000000000
     14473       679  BUTH      LPO12          16.4711623522      -14.1006998143        7.0604548515  BUTH      44              0.0000000000
     14474       679  BUTH      LPO21          18.6580183523      -14.1213959765        6.5946558943  BUTH      44              0.0000000000
     14475       679  BUTH      LPO22          18.6764197899      -14.0007694953        7.2410238450  BUTH      44              0.0000000000
     14476       680  BUTH      C1              0.6191663380      -20.2743700144       23.4778635416  BUTH      45              0.0000000000
     14477       680  BUTH      DC1             0.6714249871      -20.1709966625       23.4696498513  BUTH      45              0.0000000000
     14478       680  BUTH      C2              1.0539588081      -19.0914635303       22.6395358254  BUTH      45              0.0000000000
     14479       680  BUTH      DC2             1.0452895220      -19.0549043656       22.5812718563  BUTH      45              0.0000000000
     14480       680  BUTH      C3              2.5759954362      -18.9876807823       22.5793199926  BUTH      45              0.0000000000
     14481       680  BUTH      DC3             2.6259073304      -18.9772742057       22.6359014394  BUTH      45              0.0000000000
     14482       680  BUTH      C4              3.0908370956      -19.0815814439       23.8291833544  BUTH      45              0.0000000000
     14483       680  BUTH      DC4             3.1070969625      -19.0592190690       23.8515496925  BUTH      45              0.0000000000
     14484       680  BUTH      O1              4.0451662155      -19.8605556021       23.9521477111  BUTH      45              0.0000000000
     14485       680  BUTH      DO1             4.0701670791      -19.7610457522       24.0131394580  BUTH      45              0.0000000000
     14486       680  BUTH      O2              3.3632389765      -18.0904665590       24.4778295440  BUTH      45              0.0000000000
     14487       680  BUTH      DO2             3.3811705878      -18.0548426059       24.4878329115  BUTH      45              0.0000000000
     14488       680  BUTH      H1              1.1146409988      -21.2129779147       23.1494718986  BUTH      45              0.0000000000
     14489       680  BUTH      H2              0.8526475094      -20.1396977485       24.5556719309  BUTH      45              0.0000000000
     14490       680  BUTH      H3             -0.4763618894      -20.4376814103       23.3914442685  BUTH      45              0.0000000000
     14491       680  BUTH      H4              0.6603627123      -18.1763068018       23.1313602629  BUTH      45              0.0000000000
     14492       680  BUTH      H5              0.6169082167      -19.1549271696       21.6200849207  BUTH      45              0.0000000000
     14493       680  BUTH      H6              2.7885401323      -18.0243637361       22.0682759430  BUTH      45              0.0000000000
     14494       680  BUTH      H7              2.9056218757      -19.7765062350       21.8697977466  BUTH      45              0.0000000000
     14495       680  BUTH      H8              4.1367796351      -18.5539877444       24.8351570692  BUTH      45              0.0000000000
     14496       680  BUTH      H9              4.4516789111      -19.8631899729       24.8317507405  BUTH      45              0.0000000000
     14497       680  BUTH      LPO11           4.1192683993      -20.0086908861       23.6438219030  BUTH      45              0.0000000000
     14498       680  BUTH      LPO12           4.1556183768      -19.8630633851       24.2842531629  BUTH      45              0.0000000000
     14499       680  BUTH      LPO21           3.5076193037      -17.8664324074       24.2509749209  BUTH      45              0.0000000000
     14500       680  BUTH      LPO22           3.1422372789      -18.0920948338       24.7492251931  BUTH      45              0.0000000000
     14501       681  BUTH      C1              9.0745779062       -6.4126912385        0.0412891143  BUTH      46              0.0000000000
     14502       681  BUTH      DC1             9.0679997536       -6.4028183220        0.0248309013  BUTH      46              0.0000000000
     14503       681  BUTH      C2              9.1596883894       -5.3055278314        1.0803289898  BUTH      46              0.0000000000
     14504       681  BUTH      DC2             9.1722334487       -5.3632456783        1.1080572860  BUTH      46              0.0000000000
     14505       681  BUTH      C3              8.2464103306       -4.0909544119        0.8078239431  BUTH      46              0.0000000000
     14506       681  BUTH      DC3             8.2684463032       -4.0941357955        0.7681138226  BUTH      46              0.0000000000
     14507       681  BUTH      C4              8.3228960317       -3.5126845788       -0.4186808856  BUTH      46              0.0000000000
     14508       681  BUTH      DC4             8.3534763132       -3.5307908552       -0.4199575017  BUTH      46              0.0000000000
     14509       681  BUTH      O1              7.5090828672       -3.8855440901       -1.2753128606  BUTH      46              0.0000000000
     14510       681  BUTH      DO1             7.5507099439       -3.8485797821       -1.2764282873  BUTH      46              0.0000000000
     14511       681  BUTH      O2              9.0565841904       -2.5439584948       -0.6830350559  BUTH      46              0.0000000000
     14512       681  BUTH      DO2             9.0859676831       -2.5529189365       -0.6793298123  BUTH      46              0.0000000000
     14513       681  BUTH      H1              8.0378293740       -6.8069657237       -0.0221231299  BUTH      46              0.0000000000
     14514       681  BUTH      H2              9.3568105942       -6.0402799284       -0.9666669991  BUTH      46              0.0000000000
     14515       681  BUTH      H3              9.7567130760       -7.2504019800        0.3006215749  BUTH      46              0.0000000000
     14516       681  BUTH      H4             10.2110371689       -4.9616354419        1.1838894548  BUTH      46              0.0000000000
     14517       681  BUTH      H5              8.8449310272       -5.7296290688        2.0577679615  BUTH      46              0.0000000000
     14518       681  BUTH      H6              8.4727784006       -3.3712118952        1.6233294351  BUTH      46              0.0000000000
     14519       681  BUTH      H7              7.2149031855       -4.4302014676        1.0428248910  BUTH      46              0.0000000000
     14520       681  BUTH      H8              8.4726662084       -2.1354443579       -1.3411049536  BUTH      46              0.0000000000
     14521       681  BUTH      H9              7.5436999556       -3.3866872438       -2.1053155739  BUTH      46              0.0000000000
     14522       681  BUTH      LPO11           7.2979206016       -4.1303809797       -1.1412778089  BUTH      46              0.0000000000
     14523       681  BUTH      LPO12           7.5629913033       -3.7127551701       -1.5748756581  BUTH      46              0.0000000000
     14524       681  BUTH      LPO21           9.0174412670       -2.3238711339       -0.4137222543  BUTH      46              0.0000000000
     14525       681  BUTH      LPO22           9.3081676533       -2.6737216499       -0.8888682039  BUTH      46              0.0000000000
     14526       682  BUTH      C1            -16.7613294367      -26.8077523424       -5.8656182985  BUTH      47              0.0000000000
     14527       682  BUTH      DC1           -16.7428459739      -26.7789074466       -5.8351310938  BUTH      47              0.0000000000
     14528       682  BUTH      C2            -16.1172124619      -27.7109555541       -4.8182974174  BUTH      47              0.0000000000
     14529       682  BUTH      DC2           -16.1763529004      -27.7423943056       -4.8272719334  BUTH      47              0.0000000000
     14530       682  BUTH      C3            -15.2920597846      -26.9775798929       -3.7431196130  BUTH      47              0.0000000000
     14531       682  BUTH      DC3           -15.2997086118      -26.9438860009       -3.7726084603  BUTH      47              0.0000000000
     14532       682  BUTH      C4            -14.3358310071      -26.1535251288       -4.2491128711  BUTH      47              0.0000000000
     14533       682  BUTH      DC4           -14.3577395777      -26.1517230604       -4.2462540012  BUTH      47              0.0000000000
     14534       682  BUTH      O1            -14.5599808901      -24.9402451254       -4.0895265844  BUTH      47              0.0000000000
     14535       682  BUTH      DO1           -14.5269088127      -24.9531998667       -4.0895995823  BUTH      47              0.0000000000
     14536       682  BUTH      O2            -13.1593794265      -26.5270755958       -4.4188704260  BUTH      47              0.0000000000
     14537       682  BUTH      DO2           -13.1834018557      -26.5239480503       -4.4111166451  BUTH      47              0.0000000000
     14538       682  BUTH      H1            -17.4329678757      -26.0535191137       -5.4026333678  BUTH      47              0.0000000000
     14539       682  BUTH      H2            -15.9912498844      -26.2681113700       -6.4572990445  BUTH      47              0.0000000000
     14540       682  BUTH      H3            -17.3648995636      -27.4089631563       -6.5787589994  BUTH      47              0.0000000000
     14541       682  BUTH      H4            -15.4180578730      -28.3976766230       -5.3416692110  BUTH      47              0.0000000000
     14542       682  BUTH      H5            -16.8927361889      -28.3337080146       -4.3232587094  BUTH      47              0.0000000000
     14543       682  BUTH      H6            -14.8422388211      -27.7819806337       -3.1226991509  BUTH      47              0.0000000000
     14544       682  BUTH      H7            -16.0222657886      -26.4927088519       -3.0604628422  BUTH      47              0.0000000000
     14545       682  BUTH      H8            -12.6982798204      -25.6748262230       -4.4631215254  BUTH      47              0.0000000000
     14546       682  BUTH      H9            -13.8438956990      -24.3583068213       -4.3853826475  BUTH      47              0.0000000000
     14547       682  BUTH      LPO11         -14.8630699629      -24.8957598821       -3.9202396178  BUTH      47              0.0000000000
     14548       682  BUTH      LPO12         -14.3000274852      -24.7512453335       -4.2281025778  BUTH      47              0.0000000000
     14549       682  BUTH      LPO21         -13.0545801676      -26.6373319637       -4.1036551842  BUTH      47              0.0000000000
     14550       682  BUTH      LPO22         -13.1439759163      -26.6227941051       -4.7551748994  BUTH      47              0.0000000000
     14551       683  BUTH      C1            -25.0224434521        4.3919912997      -28.3251605035  BUTH      48              0.0000000000
     14552       683  BUTH      DC1           -25.0283708633        4.4476179279      -28.3070963570  BUTH      48              0.0000000000
     14553       683  BUTH      C2            -25.8958837945        5.5038149108      -28.8962334303  BUTH      48              0.0000000000
     14554       683  BUTH      DC2           -25.9142113666        5.4790464938      -28.9457521825  BUTH      48              0.0000000000
     14555       683  BUTH      C3            -25.4307963034        6.9051212356      -28.4445436463  BUTH      48              0.0000000000
     14556       683  BUTH      DC3           -25.4210607398        6.8949961767      -28.3911943827  BUTH      48              0.0000000000
     14557       683  BUTH      C4            -25.2665970960        7.0288313017      -27.0983387370  BUTH      48              0.0000000000
     14558       683  BUTH      DC4           -25.2675404097        7.0352875692      -27.0936159488  BUTH      48              0.0000000000
     14559       683  BUTH      O1            -24.1179615965        7.3048993812      -26.7171804325  BUTH      48              0.0000000000
     14560       683  BUTH      DO1           -24.1674526652        7.3354322898      -26.6776192790  BUTH      48              0.0000000000
     14561       683  BUTH      O2            -26.1351429468        7.5080339112      -26.3707803617  BUTH      48              0.0000000000
     14562       683  BUTH      DO2           -26.1412085355        7.5192406684      -26.3715489827  BUTH      48              0.0000000000
     14563       683  BUTH      H1            -23.9608552586        4.5179223298      -28.6276384085  BUTH      48              0.0000000000
     14564       683  BUTH      H2            -25.0596102670        4.3734845114      -27.2149365943  BUTH      48              0.0000000000
     14565       683  BUTH      H3            -25.3553137163        3.3955946625      -28.6867018277  BUTH      48              0.0000000000
     14566       683  BUTH      H4            -26.9446804509        5.3462671616      -28.5652873919  BUTH      48              0.0000000000
     14567       683  BUTH      H5            -25.8923803952        5.4560579471      -30.0062009972  BUTH      48              0.0000000000
     14568       683  BUTH      H6            -26.1924764129        7.6089836612      -28.8429681658  BUTH      48              0.0000000000
     14569       683  BUTH      H7            -24.5219981834        7.1242609431      -29.0448642003  BUTH      48              0.0000000000
     14570       683  BUTH      H8            -25.5095255530        7.7807669875      -25.6814912017  BUTH      48              0.0000000000
     14571       683  BUTH      H9            -24.0391359179        7.4807452624      -25.7675353729  BUTH      48              0.0000000000
     14572       683  BUTH      LPO11         -23.9040826809        7.3337040004      -26.9927273493  BUTH      48              0.0000000000
     14573       683  BUTH      LPO12         -24.1103013317        7.3293404576      -26.3681188990  BUTH      48              0.0000000000
     14574       683  BUTH      LPO21         -26.2172350551        7.8156865666      -26.5160756795  BUTH      48              0.0000000000
     14575       683  BUTH      LPO22         -26.2901350813        7.2331425173      -26.2194127303  BUTH      48              0.0000000000
     14576       684  BUTH      C1            -25.7799248134       -3.7520917616        1.6622966545  BUTH      49              0.0000000000
     14577       684  BUTH      DC1           -25.7292173465       -3.7713716841        1.7226382998  BUTH      49              0.0000000000
     14578       684  BUTH      C2            -26.1054532529       -3.7842216288        3.1480969640  BUTH      49              0.0000000000
     14579       684  BUTH      DC2           -26.1507971985       -3.7606451749        3.1652741534  BUTH      49              0.0000000000
     14580       684  BUTH      C3            -24.8476759176       -3.7143527819        4.0410596639  BUTH      49              0.0000000000
     14581       684  BUTH      DC3           -24.8039928488       -3.7552735993        4.0248332203  BUTH      49              0.0000000000
     14582       684  BUTH      C4            -23.8533870530       -4.5884697517        3.7278641684  BUTH      49              0.0000000000
     14583       684  BUTH      DC4           -23.8430168275       -4.6004570297        3.7332086033  BUTH      49              0.0000000000
     14584       684  BUTH      O1            -22.7282379386       -4.0767730055        3.6559189265  BUTH      49              0.0000000000
     14585       684  BUTH      DO1           -22.7234399001       -4.1477213017        3.6849410692  BUTH      49              0.0000000000
     14586       684  BUTH      O2            -23.7724456936       -5.7087778718        4.2255033503  BUTH      49              0.0000000000
     14587       684  BUTH      DO2           -23.7706449561       -5.7213747167        4.2447606036  BUTH      49              0.0000000000
     14588       684  BUTH      H1            -25.1688631181       -2.8629602507        1.3970236592  BUTH      49              0.0000000000
     14589       684  BUTH      H2            -25.2351475415       -4.6692206784        1.3517917837  BUTH      49              0.0000000000
     14590       684  BUTH      H3            -26.7055275227       -3.7021364462        1.0498547461  BUTH      49              0.0000000000
     14591       684  BUTH      H4            -26.6623790368       -4.7202180292        3.3673352124  BUTH      49              0.0000000000
     14592       684  BUTH      H5            -26.7778900322       -2.9346802326        3.3939204678  BUTH      49              0.0000000000
     14593       684  BUTH      H6            -25.2310199948       -3.8753162013        5.0713310342  BUTH      49              0.0000000000
     14594       684  BUTH      H7            -24.5437313940       -2.6457986480        4.0296233405  BUTH      49              0.0000000000
     14595       684  BUTH      H8            -22.8052420046       -5.7119379737        4.1519707882  BUTH      49              0.0000000000
     14596       684  BUTH      H9            -22.0117581068       -4.7039573344        3.4763152841  BUTH      49              0.0000000000
     14597       684  BUTH      LPO11         -22.7481176721       -3.7339194381        3.7234187597  BUTH      49              0.0000000000
     14598       684  BUTH      LPO12         -22.4907912417       -4.3206811926        3.5745072416  BUTH      49              0.0000000000
     14599       684  BUTH      LPO21         -23.8183230337       -5.6612545926        4.5692137045  BUTH      49              0.0000000000
     14600       684  BUTH      LPO22         -23.8646964360       -5.9304138359        3.9708127538  BUTH      49              0.0000000000
     14601       685  BUTH      C1            -12.6835196748       14.1626259885      -28.3921582398  BUTH      50              0.0000000000
     14602       685  BUTH      DC1           -12.6813629561       14.1346792323      -28.3424016847  BUTH      50              0.0000000000
     14603       685  BUTH      C2            -12.2569568461       12.7213742246      -28.6539273508  BUTH      50              0.0000000000
     14604       685  BUTH      DC2           -12.2882605305       12.7252898426      -28.6957906054  BUTH      50              0.0000000000
     14605       685  BUTH      C3            -12.1506633175       11.8659069515      -27.3714569714  BUTH      50              0.0000000000
     14606       685  BUTH      DC3           -12.1465029016       11.9075028825      -27.3349895148  BUTH      50              0.0000000000
     14607       685  BUTH      C4            -11.4774317471       12.4591214538      -26.3475834545  BUTH      50              0.0000000000
     14608       685  BUTH      DC4           -11.4869170615       12.4532580655      -26.3410059553  BUTH      50              0.0000000000
     14609       685  BUTH      O1            -12.1650516079       12.6896614339      -25.3417440310  BUTH      50              0.0000000000
     14610       685  BUTH      DO1           -12.1245080284       12.6797774406      -25.3306043059  BUTH      50              0.0000000000
     14611       685  BUTH      O2            -10.2814470357       12.2820803477      -26.1182127907  BUTH      50              0.0000000000
     14612       685  BUTH      DO2           -10.2825821634       12.2695100634      -26.1146290634  BUTH      50              0.0000000000
     14613       685  BUTH      H1            -13.6986133568       14.2089977682      -27.9429862499  BUTH      50              0.0000000000
     14614       685  BUTH      H2            -11.9749530358       14.6834843446      -27.7132172321  BUTH      50              0.0000000000
     14615       685  BUTH      H3            -12.7156929446       14.7399663994      -29.3408225274  BUTH      50              0.0000000000
     14616       685  BUTH      H4            -11.2632506745       12.7331833207      -29.1506461743  BUTH      50              0.0000000000
     14617       685  BUTH      H5            -12.9611271719       12.2385111605      -29.3647778378  BUTH      50              0.0000000000
     14618       685  BUTH      H6            -11.6763981292       10.9131477924      -27.6902727740  BUTH      50              0.0000000000
     14619       685  BUTH      H7            -13.1955876338       11.5782519532      -27.1271031795  BUTH      50              0.0000000000
     14620       685  BUTH      H8            -10.2779294267       12.7182566780      -25.2518192108  BUTH      50              0.0000000000
     14621       685  BUTH      H9            -11.6585030471       13.0148720447      -24.5823971971  BUTH      50              0.0000000000
     14622       685  BUTH      LPO11         -12.4939857288       12.5822976061      -25.3944256464  BUTH      50              0.0000000000
     14623       685  BUTH      LPO12         -11.9688767316       12.8415357760      -25.0948642989  BUTH      50              0.0000000000
     14624       685  BUTH      LPO21         -10.2555098512       11.9457555239      -26.0248700068  BUTH      50              0.0000000000
     14625       685  BUTH      LPO22         -10.1150711072       12.5195095678      -26.3142903669  BUTH      50              0.0000000000
     14626       686  BUTH      C1             -0.6174690415      -11.5270775645        7.9408528186  BUTH      51              0.0000000000
     14627       686  BUTH      DC1            -0.6407465177      -11.5214368025        7.9350537129  BUTH      51              0.0000000000
     14628       686  BUTH      C2             -1.0668245394      -12.8104949900        7.2462083934  BUTH      51              0.0000000000
     14629       686  BUTH      DC2            -0.9843697501      -12.8166434880        7.2243719238  BUTH      51              0.0000000000
     14630       686  BUTH      C3             -2.5164902052      -12.7350003639        6.7164564710  BUTH      51              0.0000000000
     14631       686  BUTH      DC3            -2.5010826392      -12.7242778654        6.7391970149  BUTH      51              0.0000000000
     14632       686  BUTH      C4             -3.4614610067      -12.3541486986        7.6245622795  BUTH      51              0.0000000000
     14633       686  BUTH      DC4            -3.4367762531      -12.3687996988        7.6033431279  BUTH      51              0.0000000000
     14634       686  BUTH      O1             -4.0093201059      -11.2809101082        7.3582888892  BUTH      51              0.0000000000
     14635       686  BUTH      DO1            -4.0242131558      -11.3470009546        7.3799635069  BUTH      51              0.0000000000
     14636       686  BUTH      O2             -4.1764065978      -13.1741198257        8.2042545650  BUTH      51              0.0000000000
     14637       686  BUTH      DO2            -4.1697343529      -13.1785645801        8.1747066713  BUTH      51              0.0000000000
     14638       686  BUTH      H1             -0.6996081341      -10.6545201424        7.2580514456  BUTH      51              0.0000000000
     14639       686  BUTH      H2             -1.2488184339      -11.3194049818        8.8311286428  BUTH      51              0.0000000000
     14640       686  BUTH      H3              0.4360077736      -11.6073490211        8.2844573745  BUTH      51              0.0000000000
     14641       686  BUTH      H4             -1.0017481234      -13.6531603599        7.9673194351  BUTH      51              0.0000000000
     14642       686  BUTH      H5             -0.3844323420      -13.0432733565        6.4009414995  BUTH      51              0.0000000000
     14643       686  BUTH      H6             -2.7264437084      -13.7498577650        6.3160754249  BUTH      51              0.0000000000
     14644       686  BUTH      H7             -2.4677156972      -12.0928047040        5.8111792854  BUTH      51              0.0000000000
     14645       686  BUTH      H8             -4.8306718387      -12.5501986664        8.5557647093  BUTH      51              0.0000000000
     14646       686  BUTH      H9             -4.7345776244      -11.0384333293        7.9534086617  BUTH      51              0.0000000000
     14647       686  BUTH      LPO11          -3.8781844596      -11.1499923945        7.0613646657  BUTH      51              0.0000000000
     14648       686  BUTH      LPO12          -4.2467437008      -11.2036131034        7.6035544792  BUTH      51              0.0000000000
     14649       686  BUTH      LPO21          -4.3617559184      -13.3277739527        7.9502151219  BUTH      51              0.0000000000
     14650       686  BUTH      LPO22          -4.0009868981      -13.2567415763        8.4956333138  BUTH      51              0.0000000000
     14651       687  BUTH      C1             20.4144146167      -14.0155503749      -26.5929001296  BUTH      52              0.0000000000
     14652       687  BUTH      DC1            20.3671782888      -14.0866931669      -26.6519146788  BUTH      52              0.0000000000
     14653       687  BUTH      C2             20.1735680427      -15.1064770650      -27.6234228807  BUTH      52              0.0000000000
     14654       687  BUTH      DC2            20.2009893448      -15.0927874664      -27.7154606852  BUTH      52              0.0000000000
     14655       687  BUTH      C3             18.9341430705      -15.9497765401      -27.2575448920  BUTH      52              0.0000000000
     14656       687  BUTH      DC3            18.9346800938      -15.9465081637      -27.2254984084  BUTH      52              0.0000000000
     14657       687  BUTH      C4             18.8941249030      -16.3747445779      -25.9595292422  BUTH      52              0.0000000000
     14658       687  BUTH      DC4            18.8801392953      -16.3742508999      -25.9761841145  BUTH      52              0.0000000000
     14659       687  BUTH      O1             17.8761945510      -16.0046882929      -25.3495285697  BUTH      52              0.0000000000
     14660       687  BUTH      DO1            17.8787145855      -16.0453577817      -25.3475835121  BUTH      52              0.0000000000
     14661       687  BUTH      O2             19.3075903415      -17.5095633786      -25.6463232460  BUTH      52              0.0000000000
     14662       687  BUTH      DO2            19.2945465847      -17.5094460023      -25.6671561793  BUTH      52              0.0000000000
     14663       687  BUTH      H1             19.5449953696      -13.3317172178      -26.4889607798  BUTH      52              0.0000000000
     14664       687  BUTH      H2             20.6071697691      -14.4497714380      -25.5886001144  BUTH      52              0.0000000000
     14665       687  BUTH      H3             21.2992822391      -13.3913096554      -26.8412019923  BUTH      52              0.0000000000
     14666       687  BUTH      H4             21.0631557071      -15.7716637531      -27.6453650410  BUTH      52              0.0000000000
     14667       687  BUTH      H5             20.0450149699      -14.6682597369      -28.6362213210  BUTH      52              0.0000000000
     14668       687  BUTH      H6             18.9373889084      -16.8012128970      -27.9712441249  BUTH      52              0.0000000000
     14669       687  BUTH      H7             18.0649408827      -15.3330213657      -27.5712670807  BUTH      52              0.0000000000
     14670       687  BUTH      H8             18.9164420058      -17.5715610080      -24.7608520303  BUTH      52              0.0000000000
     14671       687  BUTH      H9             17.8007008154      -16.3510804710      -24.4477114293  BUTH      52              0.0000000000
     14672       687  BUTH      LPO11          17.6719758985      -15.8151524841      -25.5613561391  BUTH      52              0.0000000000
     14673       687  BUTH      LPO12          17.8843608902      -16.1229516510      -25.0202155135  BUTH      52              0.0000000000
     14674       687  BUTH      LPO21          19.1026498733      -17.7320190240      -25.8224280170  BUTH      52              0.0000000000
     14675       687  BUTH      LPO22          19.6446519464      -17.4632697096      -25.5641869526  BUTH      52              0.0000000000
     14676       688  BUTH      C1            -12.0279790923       -1.1265598255      -17.3285953772  BUTH      53              0.0000000000
     14677       688  BUTH      DC1           -11.9543076395       -1.1138432417      -17.2877355080  BUTH      53              0.0000000000
     14678       688  BUTH      C2            -11.6564846668       -1.6212181702      -15.9434797160  BUTH      53              0.0000000000
     14679       688  BUTH      DC2           -11.6852009336       -1.6199657450      -15.9106758625  BUTH      53              0.0000000000
     14680       688  BUTH      C3            -10.3901900652       -0.9313403504      -15.4306244093  BUTH      53              0.0000000000
     14681       688  BUTH      DC3           -10.3320186377       -0.9199036647      -15.4595269517  BUTH      53              0.0000000000
     14682       688  BUTH      C4             -9.4145333320       -0.9762845053      -16.3714435920  BUTH      53              0.0000000000
     14683       688  BUTH      DC4            -9.3930378246       -0.9711221239      -16.3666500025  BUTH      53              0.0000000000
     14684       688  BUTH      O1             -8.9700810481        0.1354886897      -16.6926113355  BUTH      53              0.0000000000
     14685       688  BUTH      DO1            -8.9167570855        0.0981607017      -16.6869288477  BUTH      53              0.0000000000
     14686       688  BUTH      O2             -8.5406809592       -1.8485927931      -16.3560468306  BUTH      53              0.0000000000
     14687       688  BUTH      DO2            -8.5243048743       -1.8462172146      -16.3309995290  BUTH      53              0.0000000000
     14688       688  BUTH      H1            -12.1092030230       -0.0186489925      -17.3446347048  BUTH      53              0.0000000000
     14689       688  BUTH      H2            -11.2959434184       -1.4304704501      -18.1071087711  BUTH      53              0.0000000000
     14690       688  BUTH      H3            -13.0200464122       -1.5305037866      -17.6234728279  BUTH      53              0.0000000000
     14691       688  BUTH      H4            -11.4948851505       -2.7196130628      -15.9851361284  BUTH      53              0.0000000000
     14692       688  BUTH      H5            -12.4974941490       -1.4475834294      -15.2385860873  BUTH      53              0.0000000000
     14693       688  BUTH      H6            -10.1291817178       -1.4556628688      -14.4865473253  BUTH      53              0.0000000000
     14694       688  BUTH      H7            -10.7007431079        0.0866463902      -15.1119069741  BUTH      53              0.0000000000
     14695       688  BUTH      H8             -7.9324276658       -1.3783263640      -16.9474666617  BUTH      53              0.0000000000
     14696       688  BUTH      H9             -8.1929187345        0.1073887997      -17.2707031400  BUTH      53              0.0000000000
     14697       688  BUTH      LPO11          -9.1336404833        0.3865869668      -16.5117855453  BUTH      53              0.0000000000
     14698       688  BUTH      LPO12          -8.7206841999        0.0991080290      -16.9354645002  BUTH      53              0.0000000000
     14699       688  BUTH      LPO21          -8.3791557714       -1.8108252631      -16.0478533404  BUTH      53              0.0000000000
     14700       688  BUTH      LPO22          -8.6597316145       -2.1010645069      -16.5671983762  BUTH      53              0.0000000000
     14701       689  BUTH      C1            -23.3321301322      -18.9393817795      -25.7114404329  BUTH      54              0.0000000000
     14702       689  BUTH      DC1           -23.2913539372      -18.9901100958      -25.7227248218  BUTH      54              0.0000000000
     14703       689  BUTH      C2            -23.2522577372      -20.2241152641      -24.8959927237  BUTH      54              0.0000000000
     14704       689  BUTH      DC2           -23.2467083884      -20.2140294219      -24.8356858109  BUTH      54              0.0000000000
     14705       689  BUTH      C3            -22.0453331136      -21.0945872061      -25.2997203082  BUTH      54              0.0000000000
     14706       689  BUTH      DC3           -22.0351278368      -21.1063300410      -25.3307148717  BUTH      54              0.0000000000
     14707       689  BUTH      C4            -21.9336625030      -21.3653794347      -26.6313098519  BUTH      54              0.0000000000
     14708       689  BUTH      DC4           -21.9359040758      -21.3726972205      -26.6199378725  BUTH      54              0.0000000000
     14709       689  BUTH      O1            -20.8984129473      -20.9196755041      -27.1439595193  BUTH      54              0.0000000000
     14710       689  BUTH      DO1           -20.9230300767      -20.9806917633      -27.1510654023  BUTH      54              0.0000000000
     14711       689  BUTH      O2            -22.2653646365      -22.4647197007      -27.0995828530  BUTH      54              0.0000000000
     14712       689  BUTH      DO2           -22.2588619491      -22.4811112467      -27.0806762862  BUTH      54              0.0000000000
     14713       689  BUTH      H1            -22.4023015665      -18.3378778716      -25.6223736759  BUTH      54              0.0000000000
     14714       689  BUTH      H2            -23.4987128916      -19.1522947680      -26.7890485456  BUTH      54              0.0000000000
     14715       689  BUTH      H3            -24.1766305369      -18.3076240142      -25.3621236814  BUTH      54              0.0000000000
     14716       689  BUTH      H4            -24.1922564274      -20.7967334409      -25.0470949610  BUTH      54              0.0000000000
     14717       689  BUTH      H5            -23.1981817062      -19.9744385543      -23.8147627180  BUTH      54              0.0000000000
     14718       689  BUTH      H6            -22.1282459978      -22.0220717990      -24.6937345133  BUTH      54              0.0000000000
     14719       689  BUTH      H7            -21.1707716344      -20.5621330531      -24.8684943860  BUTH      54              0.0000000000
     14720       689  BUTH      H8            -21.7369382105      -22.3849879493      -27.9090940391  BUTH      54              0.0000000000
     14721       689  BUTH      H9            -20.7557125088      -21.1929042228      -28.0626235781  BUTH      54              0.0000000000
     14722       689  BUTH      LPO11         -20.7072497911      -20.7533948792      -26.9024902635  BUTH      54              0.0000000000
     14723       689  BUTH      LPO12         -20.8894079872      -20.9997781483      -27.4845508831  BUTH      54              0.0000000000
     14724       689  BUTH      LPO21         -22.0793415117      -22.7006242344      -26.9200154619  BUTH      54              0.0000000000
     14725       689  BUTH      LPO22         -22.5887800170      -22.4171537148      -27.2246427134  BUTH      54              0.0000000000
     14726       690  BUTH      C1             14.7255857291        3.0162140743       13.8585301849  BUTH      55              0.0000000000
     14727       690  BUTH      DC1            14.7698705575        2.9957638927       13.8075511332  BUTH      55              0.0000000000
     14728       690  BUTH      C2             15.0940815329        3.0891794487       12.3922704600  BUTH      55              0.0000000000
     14729       690  BUTH      DC2            15.0759323689        3.0993128922       12.3711505787  BUTH      55              0.0000000000
     14730       690  BUTH      C3             16.2792361806        2.1711079326       12.0679980624  BUTH      55              0.0000000000
     14731       690  BUTH      DC3            16.3397590385        2.1522507264       12.0876451617  BUTH      55              0.0000000000
     14732       690  BUTH      C4             17.3143451642        2.3070146752       12.9484303929  BUTH      55              0.0000000000
     14733       690  BUTH      DC4            17.3266783686        2.2880395502       12.9236747388  BUTH      55              0.0000000000
     14734       690  BUTH      O1             17.6505690169        1.2253691182       13.4498908046  BUTH      55              0.0000000000
     14735       690  BUTH      DO1            17.7072295281        1.2380957261       13.4010018022  BUTH      55              0.0000000000
     14736       690  BUTH      O2             18.2990475408        2.9519181007       12.6012141027  BUTH      55              0.0000000000
     14737       690  BUTH      DO2            18.2910507148        2.9396412169       12.5743302900  BUTH      55              0.0000000000
     14738       690  BUTH      H1             14.4576715864        1.9856449590       14.1755007064  BUTH      55              0.0000000000
     14739       690  BUTH      H2             15.5395341184        3.3781909095       14.5224441780  BUTH      55              0.0000000000
     14740       690  BUTH      H3             13.8398762650        3.6619804369       14.0397084172  BUTH      55              0.0000000000
     14741       690  BUTH      H4             15.3464288832        4.1376888623       12.1253063683  BUTH      55              0.0000000000
     14742       690  BUTH      H5             14.2145555926        2.8066649608       11.7750665355  BUTH      55              0.0000000000
     14743       690  BUTH      H6             16.5436536831        2.4301277008       11.0204709047  BUTH      55              0.0000000000
     14744       690  BUTH      H7             15.8338211843        1.1558934114       11.9954311479  BUTH      55              0.0000000000
     14745       690  BUTH      H8             18.9392858178        2.5602514765       13.2156994191  BUTH      55              0.0000000000
     14746       690  BUTH      H9             18.4446406422        1.2665331306       14.0037109721  BUTH      55              0.0000000000
     14747       690  BUTH      LPO11          17.4502372880        0.9675511428       13.3238071420  BUTH      55              0.0000000000
     14748       690  BUTH      LPO12          17.9158837209        1.2741342683       13.6728931991  BUTH      55              0.0000000000
     14749       690  BUTH      LPO21          18.3999917474        2.8063722908       12.2993421358  BUTH      55              0.0000000000
     14750       690  BUTH      LPO22          18.2547703587        3.2679877488       12.7448786727  BUTH      55              0.0000000000
     14751       691  BUTH      C1             19.3858582665      -27.2836774964       11.4447341640  BUTH      56              0.0000000000
     14752       691  BUTH      DC1            19.4123736734      -27.2907791558       11.4297421291  BUTH      56              0.0000000000
     14753       691  BUTH      C2             19.4047137841      -25.7718888984       11.6619396909  BUTH      56              0.0000000000
     14754       691  BUTH      DC2            19.4891118633      -25.8154966701       11.7395007250  BUTH      56              0.0000000000
     14755       691  BUTH      C3             18.2686509223      -25.0045229116       10.9239682384  BUTH      56              0.0000000000
     14756       691  BUTH      DC3            18.3404977692      -25.0618783983       10.9104495140  BUTH      56              0.0000000000
     14757       691  BUTH      C4             18.0750280697      -25.0606050481        9.5715928304  BUTH      56              0.0000000000
     14758       691  BUTH      DC4            18.1194342966      -25.0652003886        9.5966913017  BUTH      56              0.0000000000
     14759       691  BUTH      O1             17.4489863170      -26.0459491306        9.1694832418  BUTH      56              0.0000000000
     14760       691  BUTH      DO1            17.5117063726      -26.0146948838        9.1464953508  BUTH      56              0.0000000000
     14761       691  BUTH      O2             18.9433939385      -24.6543694143        8.7618519156  BUTH      56              0.0000000000
     14762       691  BUTH      DO2            18.9806640786      -24.6684248267        8.7669073485  BUTH      56              0.0000000000
     14763       691  BUTH      H1             18.4488252560      -27.7150474231       11.8572994610  BUTH      56              0.0000000000
     14764       691  BUTH      H2             19.4092625275      -27.5302085279       10.3616849079  BUTH      56              0.0000000000
     14765       691  BUTH      H3             20.2199148873      -27.8156358795       11.9503929761  BUTH      56              0.0000000000
     14766       691  BUTH      H4             20.3816664797      -25.3469662881       11.3467806742  BUTH      56              0.0000000000
     14767       691  BUTH      H5             19.2760698601      -25.5588530982       12.7447081292  BUTH      56              0.0000000000
     14768       691  BUTH      H6             18.4091950631      -23.9417540017       11.2156711508  BUTH      56              0.0000000000
     14769       691  BUTH      H7             17.3372173198      -25.2854412563       11.4604729707  BUTH      56              0.0000000000
     14770       691  BUTH      H8             18.4135991886      -24.8293448116        7.9683778245  BUTH      56              0.0000000000
     14771       691  BUTH      H9             17.3215597016      -26.0731834910        8.2092844356  BUTH      56              0.0000000000
     14772       691  BUTH      LPO11          17.3611210322      -26.2503776717        9.4396473832  BUTH      56              0.0000000000
     14773       691  BUTH      LPO12          17.4154607436      -26.0325809514        8.8213491761  BUTH      56              0.0000000000
     14774       691  BUTH      LPO21          18.9280207930      -24.3050681415        8.7777354665  BUTH      56              0.0000000000
     14775       691  BUTH      LPO22          19.1798279978      -24.9117763511        8.7433964435  BUTH      56              0.0000000000
     14776       692  BUTH      C1             15.4567279430       24.9778566250        2.5421965263  BUTH      57              0.0000000000
     14777       692  BUTH      DC1            15.4656396826       24.9720288588        2.5191373263  BUTH      57              0.0000000000
     14778       692  BUTH      C2             14.8098343374       24.0410009982        3.5590302283  BUTH      57              0.0000000000
     14779       692  BUTH      DC2            14.7355429372       24.1030453868        3.5272000387  BUTH      57              0.0000000000
     14780       692  BUTH      C3             15.8265408250       23.3374935175        4.4864642793  BUTH      57              0.0000000000
     14781       692  BUTH      DC3            15.8102489418       23.3545074769        4.4089778476  BUTH      57              0.0000000000
     14782       692  BUTH      C4             16.8302225355       22.6079107880        3.9166685542  BUTH      57              0.0000000000
     14783       692  BUTH      DC4            16.8190332879       22.6412316321        3.9253861395  BUTH      57              0.0000000000
     14784       692  BUTH      O1             17.9024137920       23.2108320347        3.7549643168  BUTH      57              0.0000000000
     14785       692  BUTH      DO1            17.9013236769       23.1899190919        3.7622604902  BUTH      57              0.0000000000
     14786       692  BUTH      O2             16.7445927902       21.3718519364        3.7468640609  BUTH      57              0.0000000000
     14787       692  BUTH      DO2            16.7158232970       21.4112202787        3.7738187434  BUTH      57              0.0000000000
     14788       692  BUTH      H1             16.0190180649       25.7821119911        3.0630843501  BUTH      57              0.0000000000
     14789       692  BUTH      H2             16.1786875645       24.4278945301        1.9013868827  BUTH      57              0.0000000000
     14790       692  BUTH      H3             14.6926523909       25.4537543512        1.8910199723  BUTH      57              0.0000000000
     14791       692  BUTH      H4             14.2209115957       23.2627535202        3.0281612535  BUTH      57              0.0000000000
     14792       692  BUTH      H5             14.0962759371       24.6104233145        4.1922076403  BUTH      57              0.0000000000
     14793       692  BUTH      H6             15.2228388639       22.6890314694        5.1568089035  BUTH      57              0.0000000000
     14794       692  BUTH      H7             16.1899726731       24.1351626286        5.1690785782  BUTH      57              0.0000000000
     14795       692  BUTH      H8             17.5490078872       21.1131012148        3.2705611995  BUTH      57              0.0000000000
     14796       692  BUTH      H9             18.6387584116       22.6585892225        3.4520031352  BUTH      57              0.0000000000
     14797       692  BUTH      LPO11          17.8734516455       23.5397767148        3.8709668665  BUTH      57              0.0000000000
     14798       692  BUTH      LPO12          18.1382788037       22.9982342589        3.6077573808  BUTH      57              0.0000000000
     14799       692  BUTH      LPO21          16.8196375227       21.2356365836        4.0604141619  BUTH      57              0.0000000000
     14800       692  BUTH      LPO22          16.5125099812       21.3356326189        3.4873920377  BUTH      57              0.0000000000
     14801       693  BUTH      C1             10.9105628585       11.3662930270       12.7713549747  BUTH      58              0.0000000000
     14802       693  BUTH      DC1            10.9117618745       11.3840388521       12.7866837892  BUTH      58              0.0000000000
     14803       693  BUTH      C2              9.5493986349       11.4662293307       13.4394154418  BUTH      58              0.0000000000
     14804       693  BUTH      DC2             9.5279608696       11.3992882199       13.3874809122  BUTH      58              0.0000000000
     14805       693  BUTH      C3              9.3274894475       12.8295420997       14.1192538714  BUTH      58              0.0000000000
     14806       693  BUTH      DC3             9.3973598364       12.7931478652       14.1298109598  BUTH      58              0.0000000000
     14807       693  BUTH      C4             10.3287677834       13.2113165692       14.9517946678  BUTH      58              0.0000000000
     14808       693  BUTH      DC4            10.3294791688       13.1983694725       14.9576832582  BUTH      58              0.0000000000
     14809       693  BUTH      O1             11.0831111906       14.1158026885       14.5742500499  BUTH      58              0.0000000000
     14810       693  BUTH      DO1            11.0775390642       14.0931130017       14.6431962726  BUTH      58              0.0000000000
     14811       693  BUTH      O2             10.3401280876       12.9935296581       16.1538455232  BUTH      58              0.0000000000
     14812       693  BUTH      DO2            10.3218388464       12.9858084799       16.1647345790  BUTH      58              0.0000000000
     14813       693  BUTH      H1             10.9948430725       12.1085321245       11.9489809909  BUTH      58              0.0000000000
     14814       693  BUTH      H2             11.7359861220       11.5636949397       13.4883137753  BUTH      58              0.0000000000
     14815       693  BUTH      H3             11.0649118014       10.3436991376       12.3654003699  BUTH      58              0.0000000000
     14816       693  BUTH      H4              9.4888956902       10.6665066572       14.2082483490  BUTH      58              0.0000000000
     14817       693  BUTH      H5              8.7378382576       11.2881939932       12.7018558354  BUTH      58              0.0000000000
     14818       693  BUTH      H6              8.3393991395       12.7741566798       14.6241607921  BUTH      58              0.0000000000
     14819       693  BUTH      H7              9.1459314262       13.5618293737       13.3037092475  BUTH      58              0.0000000000
     14820       693  BUTH      H8             11.0100929064       13.6702902403       16.3383509593  BUTH      58              0.0000000000
     14821       693  BUTH      H9             11.7412135056       14.3968965640       15.2275865452  BUTH      58              0.0000000000
     14822       693  BUTH      LPO11          10.9878093888       14.2261596419       14.2560694260  BUTH      58              0.0000000000
     14823       693  BUTH      LPO12          11.3244355945       14.1805323275       14.8193471855  BUTH      58              0.0000000000
     14824       693  BUTH      LPO21          10.0502917582       13.1459124099       16.2774351633  BUTH      58              0.0000000000
     14825       693  BUTH      LPO22          10.5252946133       12.6989794776       16.1919709592  BUTH      58              0.0000000000
     14826       694  BUTH      C1              4.8293530742       26.9529264938       25.0590130239  BUTH      59              0.0000000000
     14827       694  BUTH      DC1             4.8932876832       26.9525877608       25.0397595859  BUTH      59              0.0000000000
     14828       694  BUTH      C2              4.5015027847       27.0596442897       23.5745291528  BUTH      59              0.0000000000
     14829       694  BUTH      DC2             4.4720635127       27.0412920195       23.5871151331  BUTH      59              0.0000000000
     14830       694  BUTH      C3              5.6579871622       26.5473005262       22.6898170700  BUTH      59              0.0000000000
     14831       694  BUTH      DC3             5.7324861293       26.5790444925       22.7150541452  BUTH      59              0.0000000000
     14832       694  BUTH      C4              6.8651761814       27.1222926696       22.9522991609  BUTH      59              0.0000000000
     14833       694  BUTH      DC4             6.9037097976       27.1250303527       22.9752383619  BUTH      59              0.0000000000
     14834       694  BUTH      O1              7.7164295162       26.4213406703       23.5441017513  BUTH      59              0.0000000000
     14835       694  BUTH      DO1             7.7698556986       26.4523378443       23.5242732453  BUTH      59              0.0000000000
     14836       694  BUTH      O2              7.3494314993       27.9960233895       22.2126454744  BUTH      59              0.0000000000
     14837       694  BUTH      DO2             7.3625669401       27.9924577114       22.2212984448  BUTH      59              0.0000000000
     14838       694  BUTH      H1              5.0324949851       25.8974088679       25.3399701505  BUTH      59              0.0000000000
     14839       694  BUTH      H2              5.7155963596       27.5687131381       25.3230218284  BUTH      59              0.0000000000
     14840       694  BUTH      H3              3.9731650554       27.3072770534       25.6719557270  BUTH      59              0.0000000000
     14841       694  BUTH      H4              4.2815854836       28.1186094397       23.3204618528  BUTH      59              0.0000000000
     14842       694  BUTH      H5              3.5785231775       26.4832432162       23.3504946753  BUTH      59              0.0000000000
     14843       694  BUTH      H6              5.3176348013       26.7305920694       21.6482387092  BUTH      59              0.0000000000
     14844       694  BUTH      H7              5.6360585215       25.4404688280       22.7834318475  BUTH      59              0.0000000000
     14845       694  BUTH      H8              8.2640715629       27.6732080460       22.2015185724  BUTH      59              0.0000000000
     14846       694  BUTH      H9              8.6090208909       26.7981629275       23.5598060306  BUTH      59              0.0000000000
     14847       694  BUTH      LPO11           7.5852614727       26.1034977936       23.6094534924  BUTH      59              0.0000000000
     14848       694  BUTH      LPO12           8.0104466966       26.6050878279       23.5919648864  BUTH      59              0.0000000000
     14849       694  BUTH      LPO21           7.2458147019       27.9088605921       21.8898975758  BUTH      59              0.0000000000
     14850       694  BUTH      LPO22           7.3827379398       28.2786614716       22.4163766590  BUTH      59              0.0000000000
     14851       695  BUTH      C1             -2.6954311688      -28.9443535668      -12.2400194255  BUTH      60              0.0000000000
     14852       695  BUTH      DC1            -2.7253029232      -28.9470682406      -12.2424219580  BUTH      60              0.0000000000
     14853       695  BUTH      C2             -3.3491390825      -28.3900685089      -10.9841528208  BUTH      60              0.0000000000
     14854       695  BUTH      DC2            -3.2703245584      -28.3767002625      -10.9567517673  BUTH      60              0.0000000000
     14855       695  BUTH      C3             -4.7666074032      -28.9570529672      -10.7885142703  BUTH      60              0.0000000000
     14856       695  BUTH      DC3            -4.7466709143      -28.9415206220      -10.8361738546  BUTH      60              0.0000000000
     14857       695  BUTH      C4             -5.6273429785      -28.7837770131      -11.8292415781  BUTH      60              0.0000000000
     14858       695  BUTH      DC4            -5.6102156133      -28.7861737093      -11.8236035884  BUTH      60              0.0000000000
     14859       695  BUTH      O1             -6.0827303407      -29.8122129588      -12.3482308518  BUTH      60              0.0000000000
     14860       695  BUTH      DO1            -6.1004690802      -29.7614378021      -12.3486144266  BUTH      60              0.0000000000
     14861       695  BUTH      O2             -6.2117940023      -27.7219981972      -12.0602040281  BUTH      60              0.0000000000
     14862       695  BUTH      DO2            -6.1967265399      -27.7289109332      -12.0596016172  BUTH      60              0.0000000000
     14863       695  BUTH      H1             -2.6681313873      -30.0546469954      -12.2113101115  BUTH      60              0.0000000000
     14864       695  BUTH      H2             -3.2688966479      -28.6491512302      -13.1446264809  BUTH      60              0.0000000000
     14865       695  BUTH      H3             -1.6538136000      -28.5734807870      -12.3486804698  BUTH      60              0.0000000000
     14866       695  BUTH      H4             -3.4099334061      -27.2827484087      -11.0509902855  BUTH      60              0.0000000000
     14867       695  BUTH      H5             -2.7361832857      -28.6385182318      -10.0914720681  BUTH      60              0.0000000000
     14868       695  BUTH      H6             -5.1259046538      -28.4483750675       -9.8684744450  BUTH      60              0.0000000000
     14869       695  BUTH      H7             -4.6436370377      -30.0142505957      -10.4698726760  BUTH      60              0.0000000000
     14870       695  BUTH      H8             -6.9717022893      -28.0814682970      -12.5441675006  BUTH      60              0.0000000000
     14871       695  BUTH      H9             -6.7379432250      -29.6543287024      -13.0444561310  BUTH      60              0.0000000000
     14872       695  BUTH      LPO11          -5.9547375041      -30.0948268746      -12.1862209498  BUTH      60              0.0000000000
     14873       695  BUTH      LPO12          -6.2987389023      -29.7283716546      -12.6105492406  BUTH      60              0.0000000000
     14874       695  BUTH      LPO21          -6.3631471890      -27.6348213190      -11.7569015310  BUTH      60              0.0000000000
     14875       695  BUTH      LPO22          -6.0315544934      -27.5751884427      -12.3218538235  BUTH      60              0.0000000000
     14876       696  BUTH      C1            -26.6364949358       26.7166745636       -8.5438908956  BUTH      61              0.0000000000
     14877       696  BUTH      DC1           -26.6629233199       26.6879952003       -8.5554324224  BUTH      61              0.0000000000
     14878       696  BUTH      C2            -26.2776380014       25.2827343179       -8.1635012466  BUTH      61              0.0000000000
     14879       696  BUTH      DC2           -26.2169165768       25.3071238605       -8.1395520055  BUTH      61              0.0000000000
     14880       696  BUTH      C3            -26.9924660073       24.2258849233       -9.0338558982  BUTH      61              0.0000000000
     14881       696  BUTH      DC3           -27.0314654423       24.2697347940       -9.0327441981  BUTH      61              0.0000000000
     14882       696  BUTH      C4            -28.3353894963       24.4080538176       -9.1675431641  BUTH      61              0.0000000000
     14883       696  BUTH      DC4           -28.3366157980       24.4174312258       -9.1665102396  BUTH      61              0.0000000000
     14884       696  BUTH      O1            -28.7440584446       24.6733855903      -10.3083233736  BUTH      61              0.0000000000
     14885       696  BUTH      DO1           -28.7834012595       24.6386425123      -10.2697854151  BUTH      61              0.0000000000
     14886       696  BUTH      O2            -29.1696021356       23.8693352368       -8.4415630869  BUTH      61              0.0000000000
     14887       696  BUTH      DO2           -29.1725822203       23.8746727402       -8.4383595061  BUTH      61              0.0000000000
     14888       696  BUTH      H1            -26.3765028582       26.9323157754       -9.6022972399  BUTH      61              0.0000000000
     14889       696  BUTH      H2            -27.7240462624       26.9076169235       -8.4210327351  BUTH      61              0.0000000000
     14890       696  BUTH      H3            -26.0900115751       27.4448747183       -7.9071794451  BUTH      61              0.0000000000
     14891       696  BUTH      H4            -26.5603979535       25.1112432200       -7.1028605850  BUTH      61              0.0000000000
     14892       696  BUTH      H5            -25.1793477675       25.1320824921       -8.2368741948  BUTH      61              0.0000000000
     14893       696  BUTH      H6            -26.7490380856       23.2460224420       -8.5702468325  BUTH      61              0.0000000000
     14894       696  BUTH      H7            -26.4410993763       24.2006321974       -9.9980540823  BUTH      61              0.0000000000
     14895       696  BUTH      H8            -29.8575119703       23.8144548703       -9.1232288443  BUTH      61              0.0000000000
     14896       696  BUTH      H9            -29.7083838423       24.7186969222      -10.3918961649  BUTH      61              0.0000000000
     14897       696  BUTH      LPO11         -28.4752288451       24.6847316621      -10.5321579399  BUTH      61              0.0000000000
     14898       696  BUTH      LPO12         -29.0917616293       24.7132488611      -10.3046607224  BUTH      61              0.0000000000
     14899       696  BUTH      LPO21         -29.0686415055       23.5349868214       -8.4188015343  BUTH      61              0.0000000000
     14900       696  BUTH      LPO22         -29.2939819750       24.1262339519       -8.2389977747  BUTH      61              0.0000000000
     14901       697  BUTH      C1             28.7482417709        8.0321776508      -13.0960760295  BUTH      62              0.0000000000
     14902       697  BUTH      DC1            28.7149728277        8.0675356881      -13.1228420757  BUTH      62              0.0000000000
     14903       697  BUTH      C2             28.7754212543        8.3727909082      -14.5823451141  BUTH      62              0.0000000000
     14904       697  BUTH      DC2            28.7611322497        8.2933215486      -14.6044927677  BUTH      62              0.0000000000
     14905       697  BUTH      C3             29.0038202532        9.8804980629      -14.8446989458  BUTH      62              0.0000000000
     14906       697  BUTH      DC3            28.9592486689        9.8771003855      -14.8067831539  BUTH      62              0.0000000000
     14907       697  BUTH      C4             28.1321647858       10.7275098413      -14.2293273568  BUTH      62              0.0000000000
     14908       697  BUTH      DC4            28.1242901492       10.7169376509      -14.2321331285  BUTH      62              0.0000000000
     14909       697  BUTH      O1             28.5824220451       11.4376084078      -13.3231405401  BUTH      62              0.0000000000
     14910       697  BUTH      DO1            28.5197361667       11.4549687654      -13.3651995710  BUTH      62              0.0000000000
     14911       697  BUTH      O2             27.1551340616       11.2098484272      -14.7847937226  BUTH      62              0.0000000000
     14912       697  BUTH      DO2            27.1483340609       11.2036641632      -14.7893562085  BUTH      62              0.0000000000
     14913       697  BUTH      H1             29.7171822976        8.2960754441      -12.6208569107  BUTH      62              0.0000000000
     14914       697  BUTH      H2             27.9623881242        8.5971388133      -12.5505726557  BUTH      62              0.0000000000
     14915       697  BUTH      H3             28.5878446880        6.9466728086      -12.9220846093  BUTH      62              0.0000000000
     14916       697  BUTH      H4             27.8233915260        8.0658239833      -15.0658031841  BUTH      62              0.0000000000
     14917       697  BUTH      H5             29.5988206525        7.8086761910      -15.0703092694  BUTH      62              0.0000000000
     14918       697  BUTH      H6             28.9785414197        9.9902860331      -15.9499720264  BUTH      62              0.0000000000
     14919       697  BUTH      H7             30.0681571248       10.0685772869      -14.5875331836  BUTH      62              0.0000000000
     14920       697  BUTH      H8             27.1517035721       12.0161021454      -14.2454949432  BUTH      62              0.0000000000
     14921       697  BUTH      H9             27.9561094783       12.0914917652      -12.9779882192  BUTH      62              0.0000000000
     14922       697  BUTH      LPO11          28.9236172409       11.3733002649      -13.2789783263  BUTH      62              0.0000000000
     14923       697  BUTH      LPO12          28.3284291627       11.6394429014      -13.1917995606  BUTH      62              0.0000000000
     14924       697  BUTH      LPO21          27.2743351872       11.3310620534      -15.0907321943  BUTH      62              0.0000000000
     14925       697  BUTH      LPO22          26.8805830650       11.0369501647      -14.6535384710  BUTH      62              0.0000000000
     14926       698  BUTH      C1             20.3333885867       -9.8959225236       16.5225571986  BUTH      63              0.0000000000
     14927       698  BUTH      DC1            20.3313593057       -9.9511668366       16.4541319387  BUTH      63              0.0000000000
     14928       698  BUTH      C2             21.1258451812      -10.3294792951       15.3055488338  BUTH      63              0.0000000000
     14929       698  BUTH      DC2            21.1728346298      -10.2919053035       15.2753922425  BUTH      63              0.0000000000
     14930       698  BUTH      C3             20.2752488231      -11.1498993623       14.3166095314  BUTH      63              0.0000000000
     14931       698  BUTH      DC3            20.2494959182      -11.1689459849       14.3366908640  BUTH      63              0.0000000000
     14932       698  BUTH      C4             19.5425119986      -12.1488273744       14.8870059724  BUTH      63              0.0000000000
     14933       698  BUTH      DC4            19.5493395888      -12.1498247465       14.8858675255  BUTH      63              0.0000000000
     14934       698  BUTH      O1             18.3124524402      -12.0131002298       14.7837782509  BUTH      63              0.0000000000
     14935       698  BUTH      DO1            18.3351486271      -12.0632605243       14.7774036088  BUTH      63              0.0000000000
     14936       698  BUTH      O2             19.9349295100      -13.3315771412       14.8819407577  BUTH      63              0.0000000000
     14937       698  BUTH      DO2            19.9521537976      -13.3314398701       14.8805814696  BUTH      63              0.0000000000
     14938       698  BUTH      H1             19.4585490203       -9.2698692801       16.2450070750  BUTH      63              0.0000000000
     14939       698  BUTH      H2             19.9614208620      -10.7660392648       17.1046721953  BUTH      63              0.0000000000
     14940       698  BUTH      H3             20.9625431402       -9.2874454965       17.2068387599  BUTH      63              0.0000000000
     14941       698  BUTH      H4             21.9968136150      -10.9319952111       15.6412712775  BUTH      63              0.0000000000
     14942       698  BUTH      H5             21.5417807017       -9.4212487401       14.8193020839  BUTH      63              0.0000000000
     14943       698  BUTH      H6             20.9885563628      -11.5374691845       13.5581222296  BUTH      63              0.0000000000
     14944       698  BUTH      H7             19.6695406349      -10.4016597113       13.7620141695  BUTH      63              0.0000000000
     14945       698  BUTH      H8             19.0541393280      -13.7376828666       14.8682733917  BUTH      63              0.0000000000
     14946       698  BUTH      H9             17.7974828886      -12.7741556547       15.0912876022  BUTH      63              0.0000000000
     14947       698  BUTH      LPO11          18.2387064230      -11.7184289874       14.6099093812  BUTH      63              0.0000000000
     14948       698  BUTH      LPO12          18.1490522578      -12.2816043031       14.9377455949  BUTH      63              0.0000000000
     14949       698  BUTH      LPO21          20.0409853049      -13.3912239668       14.5537724708  BUTH      63              0.0000000000
     14950       698  BUTH      LPO22          20.0332598998      -13.3966038574       15.2114899355  BUTH      63              0.0000000000
     14951       699  BUTH      C1             -1.8299345219        0.9702637904      -10.1352958148  BUTH      64              0.0000000000
     14952       699  BUTH      DC1            -1.7806807565        0.9330809128      -10.0969231449  BUTH      64              0.0000000000
     14953       699  BUTH      C2             -1.3668026743       -0.0164347712       -9.0932812218  BUTH      64              0.0000000000
     14954       699  BUTH      DC2            -1.4280178769       -0.0544465877       -9.0459795533  BUTH      64              0.0000000000
     14955       699  BUTH      C3              0.0549508381        0.3496177681       -8.6196473687  BUTH      64              0.0000000000
     14956       699  BUTH      DC3             0.0529726640        0.3355314530       -8.6190550857  BUTH      64              0.0000000000
     14957       699  BUTH      C4              1.1259728805        0.3769240227       -9.4859872544  BUTH      64              0.0000000000
     14958       699  BUTH      DC4             1.1098155115        0.4029703883       -9.4521446720  BUTH      64              0.0000000000
     14959       699  BUTH      O1              1.6224280955        1.5257975850       -9.4913488083  BUTH      64              0.0000000000
     14960       699  BUTH      DO1             1.6439263006        1.5085343241       -9.4691034418  BUTH      64              0.0000000000
     14961       699  BUTH      O2              1.9655877010       -0.6081134735       -9.3800985989  BUTH      64              0.0000000000
     14962       699  BUTH      DO2             1.9510651345       -0.5704417267       -9.3102065592  BUTH      64              0.0000000000
     14963       699  BUTH      H1             -1.8302963607        2.0009586988       -9.7205803999  BUTH      64              0.0000000000
     14964       699  BUTH      H2             -1.1590219342        0.9766838794      -11.0208216937  BUTH      64              0.0000000000
     14965       699  BUTH      H3             -2.8579077246        0.7454216011      -10.4917198401  BUTH      64              0.0000000000
     14966       699  BUTH      H4             -1.3715629768       -1.0446113143       -9.5141747189  BUTH      64              0.0000000000
     14967       699  BUTH      H5             -2.0713837574        0.0093801654       -8.2346660072  BUTH      64              0.0000000000
     14968       699  BUTH      H6              0.2277844601       -0.4424450783       -7.8599856101  BUTH      64              0.0000000000
     14969       699  BUTH      H7             -0.1124474596        1.2767570801       -8.0308252343  BUTH      64              0.0000000000
     14970       699  BUTH      H8              2.1004473557       -0.9905950831      -10.2612459713  BUTH      64              0.0000000000
     14971       699  BUTH      H9              2.4306342510        1.6177882978      -10.0179430723  BUTH      64              0.0000000000
     14972       699  BUTH      LPO11           1.4446463790        1.7340452911       -9.2733429501  BUTH      64              0.0000000000
     14973       699  BUTH      LPO12           1.8951778565        1.5373205094       -9.7103802902  BUTH      64              0.0000000000
     14974       699  BUTH      LPO21           2.2777910066       -0.4539304541       -9.3446487396  BUTH      64              0.0000000000
     14975       699  BUTH      LPO22           1.7779760891       -0.8688206619       -9.2410531208  BUTH      64              0.0000000000
     14976       700  BUTH      C1            -10.7653473288       18.9449337638      -11.1342518488  BUTH      65              0.0000000000
     14977       700  BUTH      DC1           -10.7194705116       18.9554055223      -11.1681641953  BUTH      65              0.0000000000
     14978       700  BUTH      C2             -9.9586278389       17.9275318662      -10.3290534209  BUTH      65              0.0000000000
     14979       700  BUTH      DC2           -10.0123813253       17.9137614528      -10.3514174508  BUTH      65              0.0000000000
     14980       700  BUTH      C3             -8.7459733940       18.5392654962       -9.5797236810  BUTH      65              0.0000000000
     14981       700  BUTH      DC3            -8.7204966495       18.5892870508       -9.6515547205  BUTH      65              0.0000000000
     14982       700  BUTH      C4             -7.8465627047       19.2136495993      -10.3363836956  BUTH      65              0.0000000000
     14983       700  BUTH      DC4            -7.8294503454       19.2315690313      -10.3513994488  BUTH      65              0.0000000000
     14984       700  BUTH      O1             -7.8379257996       20.4551155856      -10.2850481167  BUTH      65              0.0000000000
     14985       700  BUTH      DO1            -7.7698654610       20.4380406973      -10.3150147855  BUTH      65              0.0000000000
     14986       700  BUTH      O2             -6.7950781312       18.7443930674      -10.7389698439  BUTH      65              0.0000000000
     14987       700  BUTH      DO2            -6.7789112824       18.7503241584      -10.7370500398  BUTH      65              0.0000000000
     14988       700  BUTH      H1            -11.1308366633       19.7653190466      -10.4802590842  BUTH      65              0.0000000000
     14989       700  BUTH      H2            -10.1573863285       19.4067352939      -11.9413725143  BUTH      65              0.0000000000
     14990       700  BUTH      H3            -11.6681216353       18.4752091708      -11.5799853553  BUTH      65              0.0000000000
     14991       700  BUTH      H4             -9.6002154807       17.1131386299      -10.9943542841  BUTH      65              0.0000000000
     14992       700  BUTH      H5            -10.6055616619       17.4464806314       -9.5646011083  BUTH      65              0.0000000000
     14993       700  BUTH      H6             -8.2797878772       17.6701687848       -9.0681936516  BUTH      65              0.0000000000
     14994       700  BUTH      H7             -9.1626900000       19.1342952753       -8.7391239949  BUTH      65              0.0000000000
     14995       700  BUTH      H8             -6.4681327235       19.5991798026      -11.0604450959  BUTH      65              0.0000000000
     14996       700  BUTH      H9             -7.1249899715       20.8755162451      -10.7889794518  BUTH      65              0.0000000000
     14997       700  BUTH      LPO11          -8.0844922660       20.5674824692      -10.0635110744  BUTH      65              0.0000000000
     14998       700  BUTH      LPO12          -7.5896951867       20.5819526001      -10.4966938928  BUTH      65              0.0000000000
     14999       700  BUTH      LPO21          -6.5998515123       18.6970121962      -10.4523662495  BUTH      65              0.0000000000
     15000       700  BUTH      LPO22          -6.8755411982       18.5820517932      -11.0384210177  BUTH      65              0.0000000000
     15001       701  BUTH      C1            -23.4413525821       14.7389859819      -28.6515595615  BUTH      66              0.0000000000
     15002       701  BUTH      DC1           -23.4334682613       14.6948283760      -28.5914566571  BUTH      66              0.0000000000
     15003       701  BUTH      C2            -23.2005519720       13.2481220352      -28.8439491344  BUTH      66              0.0000000000
     15004       701  BUTH      DC2           -23.2125207027       13.2390861820      -28.9028708850  BUTH      66              0.0000000000
     15005       701  BUTH      C3            -23.5114576906       12.4369042838      -27.5762045485  BUTH      66              0.0000000000
     15006       701  BUTH      DC3           -23.4859459989       12.4763432370      -27.5359265479  BUTH      66              0.0000000000
     15007       701  BUTH      C4            -22.9501920690       13.0011059097      -26.4770984229  BUTH      66              0.0000000000
     15008       701  BUTH      DC4           -22.9565207748       13.0018867734      -26.4591643572  BUTH      66              0.0000000000
     15009       701  BUTH      O1            -23.7326287374       13.3191458574      -25.5647841136  BUTH      66              0.0000000000
     15010       701  BUTH      DO1           -23.6855338316       13.3068913982      -25.5379065307  BUTH      66              0.0000000000
     15011       701  BUTH      O2            -21.7937640118       12.7429730135      -26.1149510371  BUTH      66              0.0000000000
     15012       701  BUTH      DO2           -21.8022545118       12.7301918461      -26.1117407070  BUTH      66              0.0000000000
     15013       701  BUTH      H1            -24.5254120709       14.9511550426      -28.5327306303  BUTH      66              0.0000000000
     15014       701  BUTH      H2            -22.8767263358       15.1400648747      -27.7828513687  BUTH      66              0.0000000000
     15015       701  BUTH      H3            -23.0950360939       15.3371397895      -29.5213859307  BUTH      66              0.0000000000
     15016       701  BUTH      H4            -22.1358123616       13.0945708460      -29.1215686502  BUTH      66              0.0000000000
     15017       701  BUTH      H5            -23.8268309822       12.8649866072      -29.6777973490  BUTH      66              0.0000000000
     15018       701  BUTH      H6            -23.1326187315       11.4121902206      -27.7781033639  BUTH      66              0.0000000000
     15019       701  BUTH      H7            -24.6162788749       12.3245353614      -27.5435797551  BUTH      66              0.0000000000
     15020       701  BUTH      H8            -21.8305536408       13.1679575287      -25.2437824626  BUTH      66              0.0000000000
     15021       701  BUTH      H9            -23.3078938414       13.7250340216      -24.7941894949  BUTH      66              0.0000000000
     15022       701  BUTH      LPO11         -24.0610273979       13.2387271796      -25.6552670182  BUTH      66              0.0000000000
     15023       701  BUTH      LPO12         -23.5549046523       13.4608097913      -25.2986159723  BUTH      66              0.0000000000
     15024       701  BUTH      LPO21         -21.8009674855       12.4052403970      -26.0233825398  BUTH      66              0.0000000000
     15025       701  BUTH      LPO22         -21.5917113414       12.9691544183      -26.2896413074  BUTH      66              0.0000000000
     15026       702  BUTH      C1            -24.6339702623       17.0569864591      -16.7192797537  BUTH      67              0.0000000000
     15027       702  BUTH      DC1           -24.6543477257       17.0663638932      -16.7106330958  BUTH      67              0.0000000000
     15028       702  BUTH      C2            -23.1290630831       16.8128149887      -16.6556112118  BUTH      67              0.0000000000
     15029       702  BUTH      DC2           -23.1780848683       16.7764929172      -16.7295952756  BUTH      67              0.0000000000
     15030       702  BUTH      C3            -22.5183619636       17.0761185786      -15.2602024729  BUTH      67              0.0000000000
     15031       702  BUTH      DC3           -22.5896307276       17.1333049791      -15.2880742884  BUTH      67              0.0000000000
     15032       702  BUTH      C4            -22.7688204231       18.2778029305      -14.6722884761  BUTH      67              0.0000000000
     15033       702  BUTH      DC4           -22.7843617165       18.2865635575      -14.6742966171  BUTH      67              0.0000000000
     15034       702  BUTH      O1            -23.7073552516       18.3584288023      -13.8599250231  BUTH      67              0.0000000000
     15035       702  BUTH      DO1           -23.6824568917       18.4129954265      -13.8670347555  BUTH      67              0.0000000000
     15036       702  BUTH      O2            -22.2265965283       19.3449958667      -14.9860681769  BUTH      67              0.0000000000
     15037       702  BUTH      DO2           -22.2390592517       19.3540074473      -14.9894340904  BUTH      67              0.0000000000
     15038       702  BUTH      H1            -25.1556061112       16.4507200338      -15.9481389996  BUTH      67              0.0000000000
     15039       702  BUTH      H2            -24.8685195667       18.1233709382      -16.5140195116  BUTH      67              0.0000000000
     15040       702  BUTH      H3            -25.0448918567       16.7950575985      -17.7177073754  BUTH      67              0.0000000000
     15041       702  BUTH      H4            -22.6067675736       17.4638998599      -17.3888348415  BUTH      67              0.0000000000
     15042       702  BUTH      H5            -22.8852246260       15.7646652598      -16.9317379119  BUTH      67              0.0000000000
     15043       702  BUTH      H6            -21.4245251540       16.9232778725      -15.3805426279  BUTH      67              0.0000000000
     15044       702  BUTH      H7            -22.8299745796       16.2170509974      -14.6283627238  BUTH      67              0.0000000000
     15045       702  BUTH      H8            -22.5811196196       19.8661507743      -14.2487684142  BUTH      67              0.0000000000
     15046       702  BUTH      H9            -23.8285232366       19.2359737933      -13.4672494467  BUTH      67              0.0000000000
     15047       702  BUTH      LPO11         -23.8638725560       18.0471584312      -13.8265620274  BUTH      67              0.0000000000
     15048       702  BUTH      LPO12         -23.7314785220       18.6852173017      -13.7369317529  BUTH      67              0.0000000000
     15049       702  BUTH      LPO21         -21.8923397273       19.3094487786      -14.8885551238  BUTH      67              0.0000000000
     15050       702  BUTH      LPO22         -22.4163391232       19.4685390712      -15.2529667050  BUTH      67              0.0000000000
     15051       703  BUTH      C1             10.3950300513       12.3793510292       25.1384689045  BUTH      68              0.0000000000
     15052       703  BUTH      DC1            10.4142160982       12.4007024272       25.1187714557  BUTH      68              0.0000000000
     15053       703  BUTH      C2              9.6226974709       12.8571137809       23.9117375944  BUTH      68              0.0000000000
     15054       703  BUTH      DC2             9.5845125653       12.8077001936       23.9362158383  BUTH      68              0.0000000000
     15055       703  BUTH      C3             10.5478789503       13.3288160136       22.7666521751  BUTH      68              0.0000000000
     15056       703  BUTH      DC3            10.5935075873       13.3404852786       22.8086013660  BUTH      68              0.0000000000
     15057       703  BUTH      C4             11.5245220219       14.1982731229       23.1496419729  BUTH      68              0.0000000000
     15058       703  BUTH      DC4            11.5289269339       14.2022035190       23.1633494576  BUTH      68              0.0000000000
     15059       703  BUTH      O1             12.6853501204       13.7761991898       23.0507042727  BUTH      68              0.0000000000
     15060       703  BUTH      DO1            12.6750208297       13.8402659669       23.0376086938  BUTH      68              0.0000000000
     15061       703  BUTH      O2             11.4419824113       15.4175119411       23.0226177322  BUTH      68              0.0000000000
     15062       703  BUTH      DO2            11.4496616916       15.4238676164       23.0358680938  BUTH      68              0.0000000000
     15063       703  BUTH      H1             11.0704539667       11.5350428181       24.8829944848  BUTH      68              0.0000000000
     15064       703  BUTH      H2             11.0217524381       13.1924604216       25.5631960721  BUTH      68              0.0000000000
     15065       703  BUTH      H3              9.7028227116       12.0332618291       25.9355838680  BUTH      68              0.0000000000
     15066       703  BUTH      H4              8.9626932825       13.7043930477       24.1960495978  BUTH      68              0.0000000000
     15067       703  BUTH      H5              8.9603359620       12.0482054677       23.5358844653  BUTH      68              0.0000000000
     15068       703  BUTH      H6              9.8727257218       13.7662286279       22.0003889537  BUTH      68              0.0000000000
     15069       703  BUTH      H7             10.9256336247       12.3990036942       22.2901320217  BUTH      68              0.0000000000
     15070       703  BUTH      H8             12.3626356310       15.5351454657       22.7407312248  BUTH      68              0.0000000000
     15071       703  BUTH      H9             13.3698774861       14.4370940056       23.2340109233  BUTH      68              0.0000000000
     15072       703  BUTH      LPO11          12.6835934515       13.4491396686       22.9260889297  BUTH      68              0.0000000000
     15073       703  BUTH      LPO12          12.9113910588       14.0217095618       23.1562038053  BUTH      68              0.0000000000
     15074       703  BUTH      LPO21          11.2707473379       15.4667036102       22.7213558373  BUTH      68              0.0000000000
     15075       703  BUTH      LPO22          11.4528814293       15.5443851742       23.3486306064  BUTH      68              0.0000000000
     15076       704  BUTH      C1            -25.2430753721       21.1288679255      -11.6354950324  BUTH      69              0.0000000000
     15077       704  BUTH      DC1           -25.3162882252       21.1389375456      -11.6116749854  BUTH      69              0.0000000000
     15078       704  BUTH      C2            -26.4952283218       21.2640892086      -12.4951114066  BUTH      69              0.0000000000
     15079       704  BUTH      DC2           -26.4856745689       21.2998866386      -12.5499481836  BUTH      69              0.0000000000
     15080       704  BUTH      C3            -27.7720788917       21.4517511675      -11.6513799231  BUTH      69              0.0000000000
     15081       704  BUTH      DC3           -27.7689264814       21.4229977750      -11.6131738737  BUTH      69              0.0000000000
     15082       704  BUTH      C4            -27.9204507125       20.5471759911      -10.6436946928  BUTH      69              0.0000000000
     15083       704  BUTH      DC4           -27.9286408743       20.5480355178      -10.6455170025  BUTH      69              0.0000000000
     15084       704  BUTH      O1            -27.9045727705       21.0362908501       -9.5052123518  BUTH      69              0.0000000000
     15085       704  BUTH      DO1           -27.9481764322       20.9921697803       -9.5206423785  BUTH      69              0.0000000000
     15086       704  BUTH      O2            -28.6846938517       19.5823809511      -10.7351096481  BUTH      69              0.0000000000
     15087       704  BUTH      DO2           -28.7015330704       19.5862651136      -10.7421972328  BUTH      69              0.0000000000
     15088       704  BUTH      H1            -25.0885946463       22.0198619263      -10.9900599879  BUTH      69              0.0000000000
     15089       704  BUTH      H2            -25.2897990659       20.2309411985      -10.9829113294  BUTH      69              0.0000000000
     15090       704  BUTH      H3            -24.3382637580       21.0147607555      -12.2700157170  BUTH      69              0.0000000000
     15091       704  BUTH      H4            -26.5979078162       20.3450833493      -13.1109085746  BUTH      69              0.0000000000
     15092       704  BUTH      H5            -26.3816301335       22.1192849873      -13.1951518574  BUTH      69              0.0000000000
     15093       704  BUTH      H6            -28.6163103083       21.4214982854      -12.3729608809  BUTH      69              0.0000000000
     15094       704  BUTH      H7            -27.7411725961       22.5126080744      -11.3228248683  BUTH      69              0.0000000000
     15095       704  BUTH      H8            -28.7796190988       19.4646947396       -9.7769660504  BUTH      69              0.0000000000
     15096       704  BUTH      H9            -28.1133081639       20.4105134432       -8.7954284599  BUTH      69              0.0000000000
     15097       704  BUTH      LPO11         -27.8617158635       21.3831202080       -9.5245173250  BUTH      69              0.0000000000
     15098       704  BUTH      LPO12         -27.9443620614       20.7839584095       -9.2659527610  BUTH      69              0.0000000000
     15099       704  BUTH      LPO21         -28.9956935692       19.7192779957      -10.8190046713  BUTH      69              0.0000000000
     15100       704  BUTH      LPO22         -28.4801186660       19.3107898224      -10.8180991186  BUTH      69              0.0000000000
     15101       705  BUTH      C1             -8.7382607543       -1.8877788897       22.5124908855  BUTH      70              0.0000000000
     15102       705  BUTH      DC1            -8.7150385120       -1.9267366783       22.5089349794  BUTH      70              0.0000000000
     15103       705  BUTH      C2             -8.3552405754       -1.8947674055       21.0398702021  BUTH      70              0.0000000000
     15104       705  BUTH      DC2            -8.3540997573       -1.8444728959       21.0435687806  BUTH      70              0.0000000000
     15105       705  BUTH      C3             -8.6842750453       -3.2308029000       20.3464266354  BUTH      70              0.0000000000
     15106       705  BUTH      DC3            -8.6727093391       -3.2628685460       20.3837930229  BUTH      70              0.0000000000
     15107       705  BUTH      C4             -8.2287058908       -4.3258962850       21.0080564856  BUTH      70              0.0000000000
     15108       705  BUTH      DC4            -8.2079823906       -4.3152348677       21.0139328305  BUTH      70              0.0000000000
     15109       705  BUTH      O1             -9.1200934995       -5.0219030595       21.4819283015  BUTH      70              0.0000000000
     15110       705  BUTH      DO1            -9.0501240559       -5.0440993066       21.4358817362  BUTH      70              0.0000000000
     15111       705  BUTH      O2             -7.2991880892       -5.0110396168       20.6189186800  BUTH      70              0.0000000000
     15112       705  BUTH      DO2            -7.2812659528       -5.0073702080       20.6194007708  BUTH      70              0.0000000000
     15113       705  BUTH      H1             -9.8138750249       -2.1427039640       22.6237929481  BUTH      70              0.0000000000
     15114       705  BUTH      H2             -8.1629112947       -2.6324568798       23.1030403685  BUTH      70              0.0000000000
     15115       705  BUTH      H3             -8.5717560993       -0.8827178324       22.9557170937  BUTH      70              0.0000000000
     15116       705  BUTH      H4             -7.2647878121       -1.7051757197       20.9434919676  BUTH      70              0.0000000000
     15117       705  BUTH      H5             -8.8850114998       -1.0700192870       20.5169416137  BUTH      70              0.0000000000
     15118       705  BUTH      H6             -8.2812020181       -3.1545537961       19.3139348874  BUTH      70              0.0000000000
     15119       705  BUTH      H7             -9.7857681997       -3.2071228052       20.2033424510  BUTH      70              0.0000000000
     15120       705  BUTH      H8             -7.7515860758       -5.8373529088       20.8500948147  BUTH      70              0.0000000000
     15121       705  BUTH      H9             -8.8165583899       -5.8559908437       21.8706762989  BUTH      70              0.0000000000
     15122       705  BUTH      LPO11          -9.4326087134       -4.8821962647       21.4090156649  BUTH      70              0.0000000000
     15123       705  BUTH      LPO12          -8.9816215098       -5.2975050158       21.6473643004  BUTH      70              0.0000000000
     15124       705  BUTH      LPO21          -7.3241430036       -5.0107500424       20.2698095732  BUTH      70              0.0000000000
     15125       705  BUTH      LPO22          -7.0567572465       -4.9891128822       20.8704072579  BUTH      70              0.0000000000
     15126       706  BUTH      C1              2.9241959131      -27.6795342087       27.9000680118  BUTH      71              0.0000000000
     15127       706  BUTH      DC1             2.9701585445      -27.6404248626       27.9212396776  BUTH      71              0.0000000000
     15128       706  BUTH      C2              2.9000269175      -26.6861878450       29.0605977576  BUTH      71              0.0000000000
     15129       706  BUTH      DC2             2.8734424973      -26.7244059943       29.1073279593  BUTH      71              0.0000000000
     15130       706  BUTH      C3              3.2449266570      -25.2452054703       28.6195672971  BUTH      71              0.0000000000
     15131       706  BUTH      DC3             3.3135275477      -25.2682252780       28.5844851983  BUTH      71              0.0000000000
     15132       706  BUTH      C4              4.3592562359      -25.1807390609       27.8448068079  BUTH      71              0.0000000000
     15133       706  BUTH      DC4             4.3930225035      -25.1841840133       27.8620380118  BUTH      71              0.0000000000
     15134       706  BUTH      O1              4.2478763558      -24.6209243881       26.7533395512  BUTH      71              0.0000000000
     15135       706  BUTH      DO1             4.3638163380      -24.6014477366       26.8301159684  BUTH      71              0.0000000000
     15136       706  BUTH      O2              5.4590923931      -24.9046583403       28.2722972428  BUTH      71              0.0000000000
     15137       706  BUTH      DO2             5.4980312600      -24.8948338449       28.2920733850  BUTH      71              0.0000000000
     15138       706  BUTH      H1              2.2104592282      -27.3885973544       27.0999075957  BUTH      71              0.0000000000
     15139       706  BUTH      H2              3.9274938848      -27.7484487406       27.4278763484  BUTH      71              0.0000000000
     15140       706  BUTH      H3              2.6284901650      -28.6963774613       28.2360872227  BUTH      71              0.0000000000
     15141       706  BUTH      H4              3.6255870813      -27.0115811678       29.8364860451  BUTH      71              0.0000000000
     15142       706  BUTH      H5              1.8939095925      -26.6801869876       29.5317802253  BUTH      71              0.0000000000
     15143       706  BUTH      H6              3.3152400545      -24.6519469699       29.5562750308  BUTH      71              0.0000000000
     15144       706  BUTH      H7              2.3314155522      -24.8431569614       28.1315350666  BUTH      71              0.0000000000
     15145       706  BUTH      H8              5.6172228972      -24.4508862437       27.4296907937  BUTH      71              0.0000000000
     15146       706  BUTH      H9              5.0758840973      -24.5379141488       26.2568785959  BUTH      71              0.0000000000
     15147       706  BUTH      LPO11           3.9194477322      -24.5081267993       26.7096206404  BUTH      71              0.0000000000
     15148       706  BUTH      LPO12           4.5546553957      -24.6249073991       26.5849033428  BUTH      71              0.0000000000
     15149       706  BUTH      LPO21           5.4104213239      -24.6394505647       28.4954473330  BUTH      71              0.0000000000
     15150       706  BUTH      LPO22           5.6494646124      -25.1966038469       28.2402622730  BUTH      71              0.0000000000
     15151       707  BUTH      C1            -27.0273402987      -23.5815170870       28.3483043536  BUTH      72              0.0000000000
     15152       707  BUTH      DC1           -27.0310054822      -23.6371342862       28.3090654805  BUTH      72              0.0000000000
     15153       707  BUTH      C2            -27.2842574639      -25.0501339157       28.6648531679  BUTH      72              0.0000000000
     15154       707  BUTH      DC2           -27.2915103702      -25.0621275505       28.7265208620  BUTH      72              0.0000000000
     15155       707  BUTH      C3            -26.6118406871      -25.9827764910       27.6388841243  BUTH      72              0.0000000000
     15156       707  BUTH      DC3           -26.6188700916      -25.9751387075       27.6040873716  BUTH      72              0.0000000000
     15157       707  BUTH      C4            -26.8939590342      -25.6819117031       26.3392061193  BUTH      72              0.0000000000
     15158       707  BUTH      DC4           -26.9067533065      -25.6845095853       26.3488448737  BUTH      72              0.0000000000
     15159       707  BUTH      O1            -25.9185238927      -25.3202953128       25.6705867017  BUTH      72              0.0000000000
     15160       707  BUTH      DO1           -25.9732302458      -25.3687410245       25.6483259809  BUTH      72              0.0000000000
     15161       707  BUTH      O2            -27.6901120161      -26.3513648230       25.6832988548  BUTH      72              0.0000000000
     15162       707  BUTH      DO2           -27.7011670601      -26.3588235695       25.6901431094  BUTH      72              0.0000000000
     15163       707  BUTH      H1            -25.9389459273      -23.3589829535       28.3342597173  BUTH      72              0.0000000000
     15164       707  BUTH      H2            -27.4409071266      -23.2949945045       27.3577548643  BUTH      72              0.0000000000
     15165       707  BUTH      H3            -27.4910732102      -22.9212923919       29.1120949923  BUTH      72              0.0000000000
     15166       707  BUTH      H4            -28.3798992036      -25.2342205599       28.6663650251  BUTH      72              0.0000000000
     15167       707  BUTH      H5            -26.9077762341      -25.2816390697       29.6841608979  BUTH      72              0.0000000000
     15168       707  BUTH      H6            -26.9303085930      -27.0107033892       27.9150461893  BUTH      72              0.0000000000
     15169       707  BUTH      H7            -25.5300302131      -25.9562661890       27.8904875909  BUTH      72              0.0000000000
     15170       707  BUTH      H8            -27.1655554533      -26.3038000195       24.8687572647  BUTH      72              0.0000000000
     15171       707  BUTH      H9            -26.0924107114      -25.2315063068       24.7214603205  BUTH      72              0.0000000000
     15172       707  BUTH      LPO11         -25.6303401081      -25.3210386675       25.8692058189  BUTH      72              0.0000000000
     15173       707  BUTH      LPO12         -26.0178638011      -25.2495431611       25.3425231170  BUTH      72              0.0000000000
     15174       707  BUTH      LPO21         -27.6353779580      -26.6825291350       25.7824673040  BUTH      72              0.0000000000
     15175       707  BUTH      LPO22         -27.9540893301      -26.1337994211       25.6092632312  BUTH      72              0.0000000000
     15176       708  BUTH      C1            -16.1004308027       -4.6879256927      -16.5274855240  BUTH      73              0.0000000000
     15177       708  BUTH      DC1           -16.0995445910       -4.7663194878      -16.4637191665  BUTH      73              0.0000000000
     15178       708  BUTH      C2            -17.2551713352       -5.0186365441      -15.5977394091  BUTH      73              0.0000000000
     15179       708  BUTH      DC2           -17.2864949325       -5.0081702900      -15.5460847159  BUTH      73              0.0000000000
     15180       708  BUTH      C3            -17.1048996001       -6.4426040431      -15.0532396087  BUTH      73              0.0000000000
     15181       708  BUTH      DC3           -17.1115886503       -6.5184599969      -15.0951865358  BUTH      73              0.0000000000
     15182       708  BUTH      C4            -16.9515366258       -7.3667823323      -16.0387745085  BUTH      73              0.0000000000
     15183       708  BUTH      DC4           -16.9634259167       -7.4030213023      -16.0406717921  BUTH      73              0.0000000000
     15184       708  BUTH      O1            -15.8877741847       -8.0085723866      -15.9969056303  BUTH      73              0.0000000000
     15185       708  BUTH      DO1           -15.9408101394       -8.0582917219      -16.0156190501  BUTH      73              0.0000000000
     15186       708  BUTH      O2            -17.8910644990       -8.1129894627      -16.3639630381  BUTH      73              0.0000000000
     15187       708  BUTH      DO2           -17.9338077202       -8.1357128180      -16.3415370305  BUTH      73              0.0000000000
     15188       708  BUTH      H1            -15.1082806238       -4.8272314008      -16.0473262348  BUTH      73              0.0000000000
     15189       708  BUTH      H2            -16.1119100862       -5.3236331391      -17.4385647023  BUTH      73              0.0000000000
     15190       708  BUTH      H3            -16.1622475837       -3.6303843526      -16.8623078643  BUTH      73              0.0000000000
     15191       708  BUTH      H4            -18.2052845494       -4.9144443143      -16.1640872346  BUTH      73              0.0000000000
     15192       708  BUTH      H5            -17.2869439580       -4.2817231526      -14.7669144242  BUTH      73              0.0000000000
     15193       708  BUTH      H6            -18.0005068141       -6.6090471618      -14.4172322122  BUTH      73              0.0000000000
     15194       708  BUTH      H7            -16.2611439503       -6.3824399259      -14.3329773770  BUTH      73              0.0000000000
     15195       708  BUTH      H8            -17.2884248768       -8.7616628208      -16.7601301265  BUTH      73              0.0000000000
     15196       708  BUTH      H9            -15.8314366553       -8.7414645636      -16.6282978538  BUTH      73              0.0000000000
     15197       708  BUTH      LPO11         -15.6948811498       -7.9029499299      -15.7246260428  BUTH      73              0.0000000000
     15198       708  BUTH      LPO12         -15.8757885779       -8.2378023984      -16.2611213507  BUTH      73              0.0000000000
     15199       708  BUTH      LPO21         -17.9872921085       -8.2756296375      -16.0693642929  BUTH      73              0.0000000000
     15200       708  BUTH      LPO22         -18.0335219419       -7.9654448294      -16.6475762574  BUTH      73              0.0000000000
     15201       709  BUTH      C1             -6.7746319604       12.6872150498      -25.9688692690  BUTH      74              0.0000000000
     15202       709  BUTH      DC1            -6.7267559272       12.7337889290      -25.9596658289  BUTH      74              0.0000000000
     15203       709  BUTH      C2             -7.0970386348       13.7817328756      -26.9723803711  BUTH      74              0.0000000000
     15204       709  BUTH      DC2            -7.1117855079       13.7537508168      -26.9997752708  BUTH      74              0.0000000000
     15205       709  BUTH      C3             -5.9269183533       14.7680188719      -27.1507248514  BUTH      74              0.0000000000
     15206       709  BUTH      DC3            -5.8932901825       14.7712982769      -27.1057881078  BUTH      74              0.0000000000
     15207       709  BUTH      C4             -5.3388008205       15.1982373528      -25.9966525968  BUTH      74              0.0000000000
     15208       709  BUTH      DC4            -5.3208795154       15.1930420469      -25.9957671009  BUTH      74              0.0000000000
     15209       709  BUTH      O1             -4.1805725719       14.7785372235      -25.8134555462  BUTH      74              0.0000000000
     15210       709  BUTH      DO1            -4.1758232648       14.8151618006      -25.8040023989  BUTH      74              0.0000000000
     15211       709  BUTH      O2             -5.5906844776       16.3251214304      -25.5350007412  BUTH      74              0.0000000000
     15212       709  BUTH      DO2            -5.5871480153       16.3192602029      -25.5616387022  BUTH      74              0.0000000000
     15213       709  BUTH      H1             -5.9696904578       12.0248536588      -26.3531446470  BUTH      74              0.0000000000
     15214       709  BUTH      H2             -6.4460891716       13.0858659520      -24.9852747937  BUTH      74              0.0000000000
     15215       709  BUTH      H3             -7.6802588904       12.0697060541      -25.7876414992  BUTH      74              0.0000000000
     15216       709  BUTH      H4             -7.9946097320       14.3420548118      -26.6336674340  BUTH      74              0.0000000000
     15217       709  BUTH      H5             -7.3766258897       13.3274392311      -27.9469414269  BUTH      74              0.0000000000
     15218       709  BUTH      H6             -6.3527746344       15.6032759255      -27.7468062908  BUTH      74              0.0000000000
     15219       709  BUTH      H7             -5.2391413199       14.2568096182      -27.8577954654  BUTH      74              0.0000000000
     15220       709  BUTH      H8             -4.9388859915       16.4171358971      -24.8225457803  BUTH      74              0.0000000000
     15221       709  BUTH      H9             -3.7305433025       15.1671685106      -25.0483409269  BUTH      74              0.0000000000
     15222       709  BUTH      LPO11          -4.0842355748       14.5729056781      -26.0797915193  BUTH      74              0.0000000000
     15223       709  BUTH      LPO12          -4.0542662358       14.9034908577      -25.5119040601  BUTH      74              0.0000000000
     15224       709  BUTH      LPO21          -5.4554885704       16.5481648480      -25.7683967578  BUTH      74              0.0000000000
     15225       709  BUTH      LPO22          -5.8807950704       16.2794816516      -25.3445989174  BUTH      74              0.0000000000
     15226       710  BUTH      C1             11.4756650713        8.3392123279      -16.1571732755  BUTH      75              0.0000000000
     15227       710  BUTH      DC1            11.4515100886        8.3434064707      -16.1520609576  BUTH      75              0.0000000000
     15228       710  BUTH      C2             12.3390260500        9.2638821204      -15.3117148368  BUTH      75              0.0000000000
     15229       710  BUTH      DC2            12.3635596034        9.1843449890      -15.2964884863  BUTH      75              0.0000000000
     15230       710  BUTH      C3             11.6618454689       10.6019857267      -14.9317849633  BUTH      75              0.0000000000
     15231       710  BUTH      DC3            11.6517260607       10.5647383317      -14.9452141471  BUTH      75              0.0000000000
     15232       710  BUTH      C4             10.9093186613       11.2803295071      -15.8553821947  BUTH      75              0.0000000000
     15233       710  BUTH      DC4            10.9251946495       11.2425931692      -15.8314151419  BUTH      75              0.0000000000
     15234       710  BUTH      O1              9.6882210226       11.1545544992      -15.6731689587  BUTH      75              0.0000000000
     15235       710  BUTH      DO1             9.7182719129       11.1738706721      -15.6806205429  BUTH      75              0.0000000000
     15236       710  BUTH      O2             11.3318898475       12.2845163016      -16.4803960998  BUTH      75              0.0000000000
     15237       710  BUTH      DO2            11.3526596985       12.2537126165      -16.4626493339  BUTH      75              0.0000000000
     15238       710  BUTH      H1             10.5813723885        7.9973951288      -15.5935044015  BUTH      75              0.0000000000
     15239       710  BUTH      H2             11.1249105398        8.8630351446      -17.0719967102  BUTH      75              0.0000000000
     15240       710  BUTH      H3             12.0639165048        7.4588004451      -16.4935602068  BUTH      75              0.0000000000
     15241       710  BUTH      H4             13.2604888206        9.4865316340      -15.8910718575  BUTH      75              0.0000000000
     15242       710  BUTH      H5             12.6884304551        8.7596743970      -14.3854253931  BUTH      75              0.0000000000
     15243       710  BUTH      H6             12.4923210755       11.2377965901      -14.5571173603  BUTH      75              0.0000000000
     15244       710  BUTH      H7             11.0890190625       10.3511270592      -14.0134926146  BUTH      75              0.0000000000
     15245       710  BUTH      H8             10.5012206716       12.7169961457      -16.7330814867  BUTH      75              0.0000000000
     15246       710  BUTH      H9              9.1437505352       11.6989447519      -16.2615159151  BUTH      75              0.0000000000
     15247       710  BUTH      LPO11           9.6290910515       10.9514441783      -15.3943323685  BUTH      75              0.0000000000
     15248       710  BUTH      LPO12           9.5117779513       11.3334004203      -15.9168531377  BUTH      75              0.0000000000
     15249       710  BUTH      LPO21          11.4415882478       12.5048675604      -16.2315757153  BUTH      75              0.0000000000
     15250       710  BUTH      LPO22          11.4324655284       12.1600885045      -16.7916873713  BUTH      75              0.0000000000
     15251       711  BUTH      C1            -12.5449934974        6.3227816368       18.5928618717  BUTH      76              0.0000000000
     15252       711  BUTH      DC1           -12.5098495472        6.3221204158       18.5965322307  BUTH      76              0.0000000000
     15253       711  BUTH      C2            -12.1774554598        7.5395898736       17.7477877863  BUTH      76              0.0000000000
     15254       711  BUTH      DC2           -12.2307169302        7.5269731971       17.7275648276  BUTH      76              0.0000000000
     15255       711  BUTH      C3            -10.7349005729        7.4756060857       17.2007308933  BUTH      76              0.0000000000
     15256       711  BUTH      DC3           -10.7013340893        7.4567595478       17.2366761129  BUTH      76              0.0000000000
     15257       711  BUTH      C4             -9.7692366051        7.1733399922       18.1129146457  BUTH      76              0.0000000000
     15258       711  BUTH      DC4            -9.7636449404        7.1751819970       18.1128699016  BUTH      76              0.0000000000
     15259       711  BUTH      O1             -9.1182031972        6.1430169019       17.8927203733  BUTH      76              0.0000000000
     15260       711  BUTH      DO1            -9.0660241641        6.2124273883       17.9259371583  BUTH      76              0.0000000000
     15261       711  BUTH      O2             -9.0429941183        8.0095012162       18.5983177871  BUTH      76              0.0000000000
     15262       711  BUTH      DO2            -9.0274549012        8.0094601867       18.5849043251  BUTH      76              0.0000000000
     15263       711  BUTH      H1            -12.4439287701        5.3835313275       18.0081262237  BUTH      76              0.0000000000
     15264       711  BUTH      H2            -11.8882074283        6.2413254688       19.4852283620  BUTH      76              0.0000000000
     15265       711  BUTH      H3            -13.5945254564        6.3954041894       18.9499747820  BUTH      76              0.0000000000
     15266       711  BUTH      H4            -12.2762344590        8.4614404442       18.3599603393  BUTH      76              0.0000000000
     15267       711  BUTH      H5            -12.8844700933        7.6406655968       16.8967678058  BUTH      76              0.0000000000
     15268       711  BUTH      H6            -10.5703475438        8.4618997631       16.7165118486  BUTH      76              0.0000000000
     15269       711  BUTH      H7            -10.7986382704        6.7633353017       16.3504786742  BUTH      76              0.0000000000
     15270       711  BUTH      H8             -8.3543693930        7.3545766479       18.7926623204  BUTH      76              0.0000000000
     15271       711  BUTH      H9             -8.3869796025        5.9904874202       18.5099786756  BUTH      76              0.0000000000
     15272       711  BUTH      LPO11          -9.2303584605        5.9912504921       17.5979524074  BUTH      76              0.0000000000
     15273       711  BUTH      LPO12          -8.8801973931        6.0956127059       18.1449228305  BUTH      76              0.0000000000
     15274       711  BUTH      LPO21          -8.9052179403        8.1811486211       18.3261874999  BUTH      76              0.0000000000
     15275       711  BUTH      LPO22          -9.1748439531        8.0727610889       18.9163017640  BUTH      76              0.0000000000
     15276       712  BUTH      C1             22.7570454271       26.2989593268       -1.1878292174  BUTH      77              0.0000000000
     15277       712  BUTH      DC1            22.7069569585       26.2893126426       -1.2001313004  BUTH      77              0.0000000000
     15278       712  BUTH      C2             22.1685299214       24.8912438743       -1.2108945026  BUTH      77              0.0000000000
     15279       712  BUTH      DC2            22.2181834749       24.8714202834       -1.2122997126  BUTH      77              0.0000000000
     15280       712  BUTH      C3             20.9095940400       24.7789588804       -2.0990827157  BUTH      77              0.0000000000
     15281       712  BUTH      DC3            20.8879590570       24.8225358212       -2.1104034333  BUTH      77              0.0000000000
     15282       712  BUTH      C4             19.9602050683       25.7223939475       -1.8427294812  BUTH      77              0.0000000000
     15283       712  BUTH      DC4            19.9619014619       25.7224771170       -1.8560376233  BUTH      77              0.0000000000
     15284       712  BUTH      O1             19.7357613994       26.4944574044       -2.7883694291  BUTH      77              0.0000000000
     15285       712  BUTH      DO1            19.6838648121       26.4747764578       -2.7620226135  BUTH      77              0.0000000000
     15286       712  BUTH      O2             18.9614985157       25.4797253836       -1.1738353632  BUTH      77              0.0000000000
     15287       712  BUTH      DO2            18.9637504906       25.4805163433       -1.1945955393  BUTH      77              0.0000000000
     15288       712  BUTH      H1             23.0239937858       26.6450733423       -2.2092324984  BUTH      77              0.0000000000
     15289       712  BUTH      H2             22.0436119929       27.0331868327       -0.7562695958  BUTH      77              0.0000000000
     15290       712  BUTH      H3             23.6823597267       26.3295091342       -0.5736784572  BUTH      77              0.0000000000
     15291       712  BUTH      H4             21.8971018221       24.5913863568       -0.1761320874  BUTH      77              0.0000000000
     15292       712  BUTH      H5             22.9345112113       24.1664404076       -1.5605423253  BUTH      77              0.0000000000
     15293       712  BUTH      H6             20.5328167472       23.7467500106       -1.9350561269  BUTH      77              0.0000000000
     15294       712  BUTH      H7             21.2884169339       24.7722491243       -3.1434816789  BUTH      77              0.0000000000
     15295       712  BUTH      H8             18.4167769074       26.2121164865       -1.5021365083  BUTH      77              0.0000000000
     15296       712  BUTH      H9             18.9992315604       27.1064598732       -2.6402553702  BUTH      77              0.0000000000
     15297       712  BUTH      LPO11          19.9387459692       26.4117172556       -3.0612271433  BUTH      77              0.0000000000
     15298       712  BUTH      LPO12          19.4894856729       26.7261147418       -2.6979086943  BUTH      77              0.0000000000
     15299       712  BUTH      LPO21          18.8101458982       25.2072675346       -1.3330807892  BUTH      77              0.0000000000
     15300       712  BUTH      LPO22          19.0387463002       25.5930223734       -0.8518158422  BUTH      77              0.0000000000
     15301       713  BUTH      C1            -22.0608108417        5.2671573498       15.0761683972  BUTH      78              0.0000000000
     15302       713  BUTH      DC1           -22.0380027687        5.2487455321       15.0466062521  BUTH      78              0.0000000000
     15303       713  BUTH      C2            -21.1135749752        4.1171325447       14.7584837009  BUTH      78              0.0000000000
     15304       713  BUTH      DC2           -21.1715771194        4.0495021842       14.7985051029  BUTH      78              0.0000000000
     15305       713  BUTH      C3            -19.6776870755        4.5841467088       14.4733245290  BUTH      78              0.0000000000
     15306       713  BUTH      DC3           -19.7207075919        4.5980375969       14.4593653436  BUTH      78              0.0000000000
     15307       713  BUTH      C4            -19.5779988120        5.4872744812       13.4664274423  BUTH      78              0.0000000000
     15308       713  BUTH      DC4           -19.5941095712        5.4612499390       13.4715655500  BUTH      78              0.0000000000
     15309       713  BUTH      O1            -19.2127454395        6.6193437340       13.7893565498  BUTH      78              0.0000000000
     15310       713  BUTH      DO1           -19.2117433710        6.5741374781       13.7261544694  BUTH      78              0.0000000000
     15311       713  BUTH      O2            -19.3499203530        5.1658113792       12.2988584648  BUTH      78              0.0000000000
     15312       713  BUTH      DO2           -19.3553352169        5.1466873728       12.2980851589  BUTH      78              0.0000000000
     15313       713  BUTH      H1            -21.6794254661        5.8811789265       15.9198766991  BUTH      78              0.0000000000
     15314       713  BUTH      H2            -22.1804280423        5.9479827979       14.2064043859  BUTH      78              0.0000000000
     15315       713  BUTH      H3            -23.0658586814        4.8885735199       15.3605521591  BUTH      78              0.0000000000
     15316       713  BUTH      H4            -21.4664959383        3.5749377201       13.8552713413  BUTH      78              0.0000000000
     15317       713  BUTH      H5            -21.1042001162        3.3848597805       15.5939534554  BUTH      78              0.0000000000
     15318       713  BUTH      H6            -19.1032393901        3.6659302881       14.2259190693  BUTH      78              0.0000000000
     15319       713  BUTH      H7            -19.2598430699        4.9240910216       15.4450061909  BUTH      78              0.0000000000
     15320       713  BUTH      H8            -18.9381539691        6.0104271649       12.0580834254  BUTH      78              0.0000000000
     15321       713  BUTH      H9            -19.0527074377        7.2183265723       13.0446630571  BUTH      78              0.0000000000
     15322       713  BUTH      LPO11         -19.1565747451        6.6330895257       14.1345462169  BUTH      78              0.0000000000
     15323       713  BUTH      LPO12         -19.1979704626        6.8254875290       13.5068916213  BUTH      78              0.0000000000
     15324       713  BUTH      LPO21         -19.0708366181        4.9551899284       12.3146974482  BUTH      78              0.0000000000
     15325       713  BUTH      LPO22         -19.6583065998        5.1904160269       12.1351742136  BUTH      78              0.0000000000
     15326       714  BUTH      C1             11.3936022754      -16.6735192334       19.3485829438  BUTH      79              0.0000000000
     15327       714  BUTH      DC1            11.4107059714      -16.6240131945       19.3921214097  BUTH      79              0.0000000000
     15328       714  BUTH      C2             12.2996292200      -15.4459523018       19.3949550457  BUTH      79              0.0000000000
     15329       714  BUTH      DC2            12.2905660214      -15.4095216351       19.3149068255  BUTH      79              0.0000000000
     15330       714  BUTH      C3             13.5437398046      -15.6320431441       20.2829777957  BUTH      79              0.0000000000
     15331       714  BUTH      DC3            13.5169482497      -15.6351813912       20.3045486063  BUTH      79              0.0000000000
     15332       714  BUTH      C4             13.2481126465      -16.0883532240       21.5290026343  BUTH      79              0.0000000000
     15333       714  BUTH      DC4            13.2388621996      -16.0747948312       21.5185302056  BUTH      79              0.0000000000
     15334       714  BUTH      O1             13.8933284270      -17.0742805663       21.8963933928  BUTH      79              0.0000000000
     15335       714  BUTH      DO1            13.8798889012      -17.0113161858       21.9419408130  BUTH      79              0.0000000000
     15336       714  BUTH      O2             12.9739005061      -15.3204598760       22.4441998144  BUTH      79              0.0000000000
     15337       714  BUTH      DO2            12.9651755414      -15.3154197753       22.4329984140  BUTH      79              0.0000000000
     15338       714  BUTH      H1             11.9178207610      -17.5610656882       18.9341227286  BUTH      79              0.0000000000
     15339       714  BUTH      H2             11.0347955262      -16.9667189239       20.3583416572  BUTH      79              0.0000000000
     15340       714  BUTH      H3             10.5088008319      -16.4989628431       18.6997551746  BUTH      79              0.0000000000
     15341       714  BUTH      H4             11.7183777306      -14.5852464178       19.7894839917  BUTH      79              0.0000000000
     15342       714  BUTH      H5             12.6330142022      -15.1876908602       18.3671046278  BUTH      79              0.0000000000
     15343       714  BUTH      H6             14.0401608194      -14.6385323226       20.3116731594  BUTH      79              0.0000000000
     15344       714  BUTH      H7             14.2442804595      -16.2729020772       19.7060344548  BUTH      79              0.0000000000
     15345       714  BUTH      H8             13.3801843416      -15.8605109412       23.1400290262  BUTH      79              0.0000000000
     15346       714  BUTH      H9             13.6991189902      -17.3680767192       22.7991267512  BUTH      79              0.0000000000
     15347       714  BUTH      LPO11          14.1162631058      -17.1719637607       21.6448817181  BUTH      79              0.0000000000
     15348       714  BUTH      LPO12          13.7955514007      -17.1678455644       22.2191707840  BUTH      79              0.0000000000
     15349       714  BUTH      LPO21          13.2050179510      -15.0591069574       22.4162824614  BUTH      79              0.0000000000
     15350       714  BUTH      LPO22          12.6334852410      -15.3717373815       22.5073509405  BUTH      79              0.0000000000
     15351       715  BUTH      C1             21.4963025951       26.6210231646      -23.9325483946  BUTH      80              0.0000000000
     15352       715  BUTH      DC1            21.4148201344       26.6460214733      -23.9392890163  BUTH      80              0.0000000000
     15353       715  BUTH      C2             20.9332718794       27.7526216097      -23.0920129449  BUTH      80              0.0000000000
     15354       715  BUTH      DC2            20.9505610392       27.7764515717      -23.0785308969  BUTH      80              0.0000000000
     15355       715  BUTH      C3             19.5697928619       27.3490192256      -22.5071661467  BUTH      80              0.0000000000
     15356       715  BUTH      DC3            19.5052313840       27.3279455923      -22.5560874440  BUTH      80              0.0000000000
     15357       715  BUTH      C4             18.6709542777       26.9837671634      -23.4580225721  BUTH      80              0.0000000000
     15358       715  BUTH      DC4            18.6426133269       26.9752607747      -23.4711995304  BUTH      80              0.0000000000
     15359       715  BUTH      O1             18.1994007519       25.8397347334      -23.3513695568  BUTH      80              0.0000000000
     15360       715  BUTH      DO1            18.1391531099       25.8777484821      -23.3726047917  BUTH      80              0.0000000000
     15361       715  BUTH      O2             17.8554198219       27.7797403377      -23.9427373117  BUTH      80              0.0000000000
     15362       715  BUTH      DO2            17.8415073644       27.7853466253      -23.9377239237  BUTH      80              0.0000000000
     15363       715  BUTH      H1             21.6101748960       25.7057287493      -23.3132017766  BUTH      80              0.0000000000
     15364       715  BUTH      H2             20.8467639253       26.3639155870      -24.7964443428  BUTH      80              0.0000000000
     15365       715  BUTH      H3             22.5040704013       26.8730686529      -24.3265003215  BUTH      80              0.0000000000
     15366       715  BUTH      H4             20.8412638932       28.6747131625      -23.7048772865  BUTH      80              0.0000000000
     15367       715  BUTH      H5             21.6373016240       27.9778761698      -22.2626014047  BUTH      80              0.0000000000
     15368       715  BUTH      H6             19.2390123041       28.2187165136      -21.9000979046  BUTH      80              0.0000000000
     15369       715  BUTH      H7             19.8041808414       26.5712648260      -21.7492206547  BUTH      80              0.0000000000
     15370       715  BUTH      H8             17.2541015588       27.0986721149      -24.2825349315  BUTH      80              0.0000000000
     15371       715  BUTH      H9             17.4815207422       25.6378480391      -23.9701191461  BUTH      80              0.0000000000
     15372       715  BUTH      LPO11          18.3351471863       25.6799515319      -23.0711156825  BUTH      80              0.0000000000
     15373       715  BUTH      LPO12          17.9727548360       25.7789873925      -23.6110643572  BUTH      80              0.0000000000
     15374       715  BUTH      LPO21          17.6731477723       27.9016001790      -23.6699240441  BUTH      80              0.0000000000
     15375       715  BUTH      LPO22          18.0034898615       27.8937066689      -24.2386882177  BUTH      80              0.0000000000
     15376       716  BUTH      C1             11.1138015525       20.7998149017        8.2641019260  BUTH      81              0.0000000000
     15377       716  BUTH      DC1            11.1184527623       20.8022511664        8.2558920571  BUTH      81              0.0000000000
     15378       716  BUTH      C2             10.2087935688       21.8755962641        7.6560038330  BUTH      81              0.0000000000
     15379       716  BUTH      DC2            10.2977141559       21.9675039443        7.6733164331  BUTH      81              0.0000000000
     15380       716  BUTH      C3              8.7085109105       21.5000054104        7.5789497169  BUTH      81              0.0000000000
     15381       716  BUTH      DC3             8.7957191995       21.5168591555        7.5706156519  BUTH      81              0.0000000000
     15382       716  BUTH      C4              8.2450459246       20.3500268342        7.0133803520  BUTH      81              0.0000000000
     15383       716  BUTH      DC4             8.3072248061       20.3757704208        7.0396914491  BUTH      81              0.0000000000
     15384       716  BUTH      O1              8.4773473285       19.3330310886        7.7022637068  BUTH      81              0.0000000000
     15385       716  BUTH      DO1             8.4855586592       19.3265020921        7.6741474421  BUTH      81              0.0000000000
     15386       716  BUTH      O2              8.2696045166       20.2542365223        5.7557390581  BUTH      81              0.0000000000
     15387       716  BUTH      DO2             8.2937547681       20.2776212661        5.7817955637  BUTH      81              0.0000000000
     15388       716  BUTH      H1             10.7785359707       20.5370867832        9.2902071478  BUTH      81              0.0000000000
     15389       716  BUTH      H2             11.0771819411       19.8705792051        7.6562359669  BUTH      81              0.0000000000
     15390       716  BUTH      H3             12.1726656578       21.1313903561        8.3205423903  BUTH      81              0.0000000000
     15391       716  BUTH      H4             10.5635974720       22.1014952647        6.6277019154  BUTH      81              0.0000000000
     15392       716  BUTH      H5             10.2993053853       22.7975275432        8.2693319081  BUTH      81              0.0000000000
     15393       716  BUTH      H6              8.2080674012       22.3592849524        7.0834540437  BUTH      81              0.0000000000
     15394       716  BUTH      H7              8.3347190432       21.5680924290        8.6229635093  BUTH      81              0.0000000000
     15395       716  BUTH      H8              7.8100006381       19.4153171946        5.5948706756  BUTH      81              0.0000000000
     15396       716  BUTH      H9              8.1590455259       18.5031886926        7.3162500279  BUTH      81              0.0000000000
     15397       716  BUTH      LPO11           8.6475698189       19.4227933438        7.9946111735  BUTH      81              0.0000000000
     15398       716  BUTH      LPO12           8.3516134876       19.0485013175        7.5418460936  BUTH      81              0.0000000000
     15399       716  BUTH      LPO21           8.0241269498       20.4777163487        5.6448448231  BUTH      81              0.0000000000
     15400       716  BUTH      LPO22           8.5972612623       20.1568914874        5.6804728559  BUTH      81              0.0000000000
     15401       717  BUTH      C1              7.9946891861        3.1171353851      -22.9628304911  BUTH      82              0.0000000000
     15402       717  BUTH      DC1             7.9735552649        3.1638215943      -22.9524203791  BUTH      82              0.0000000000
     15403       717  BUTH      C2              8.2658950674        3.9064691497      -21.6884534206  BUTH      82              0.0000000000
     15404       717  BUTH      DC2             8.3214011709        3.8773924042      -21.6832284087  BUTH      82              0.0000000000
     15405       717  BUTH      C3              7.0040294192        4.5724946924      -21.1014093613  BUTH      82              0.0000000000
     15406       717  BUTH      DC3             6.9963218025        4.5852717297      -21.1529561161  BUTH      82              0.0000000000
     15407       717  BUTH      C4              6.2625302081        5.2813479438      -21.9925121651  BUTH      82              0.0000000000
     15408       717  BUTH      DC4             6.2791558178        5.2845443074      -22.0043981735  BUTH      82              0.0000000000
     15409       717  BUTH      O1              5.2217645103        4.7393009730      -22.3881452891  BUTH      82              0.0000000000
     15410       717  BUTH      DO1             5.2330802083        4.7884966979      -22.3896536894  BUTH      82              0.0000000000
     15411       717  BUTH      O2              6.3810649578        6.5183321539      -22.1584084767  BUTH      82              0.0000000000
     15412       717  BUTH      DO2             6.4072853691        6.5205918799      -22.1670999797  BUTH      82              0.0000000000
     15413       717  BUTH      H1              7.2559177200        2.3098997155      -22.7707151710  BUTH      82              0.0000000000
     15414       717  BUTH      H2              7.5850338397        3.7592077987      -23.7716855546  BUTH      82              0.0000000000
     15415       717  BUTH      H3              8.9225850010        2.6365412900      -23.3401362986  BUTH      82              0.0000000000
     15416       717  BUTH      H4              9.0223697346        4.6934369708      -21.8952110739  BUTH      82              0.0000000000
     15417       717  BUTH      H5              8.7034318261        3.2329783669      -20.9207993643  BUTH      82              0.0000000000
     15418       717  BUTH      H6              7.3531294798        5.2044560552      -20.2569716871  BUTH      82              0.0000000000
     15419       717  BUTH      H7              6.4418765325        3.7535012989      -20.6038604141  BUTH      82              0.0000000000
     15420       717  BUTH      H8              5.4544919459        6.7054375278      -22.3760182942  BUTH      82              0.0000000000
     15421       717  BUTH      H9              4.6564713635        5.3030826264      -22.9372854401  BUTH      82              0.0000000000
     15422       717  BUTH      LPO11           5.1856384443        4.4253637805      -22.2376848408  BUTH      82              0.0000000000
     15423       717  BUTH      LPO12           5.0566775797        4.9484433058      -22.6150941600  BUTH      82              0.0000000000
     15424       717  BUTH      LPO21           6.4005112193        6.6520816919      -21.8355572664  BUTH      82              0.0000000000
     15425       717  BUTH      LPO22           6.5304212289        6.5541557577      -22.4729070835  BUTH      82              0.0000000000
     15426       718  BUTH      C1              4.5015449887        8.3269856709       12.3332902625  BUTH      83              0.0000000000
     15427       718  BUTH      DC1             4.5451621864        8.2815189386       12.3227838081  BUTH      83              0.0000000000
     15428       718  BUTH      C2              4.3543236611        7.1427646719       11.3839538083  BUTH      83              0.0000000000
     15429       718  BUTH      DC2             4.2913764187        7.1444599369       11.3732935778  BUTH      83              0.0000000000
     15430       718  BUTH      C3              5.4202895563        6.0500580892       11.6230531112  BUTH      83              0.0000000000
     15431       718  BUTH      DC3             5.4718743167        6.1088880979       11.6294959241  BUTH      83              0.0000000000
     15432       718  BUTH      C4              6.7026348996        6.5003453299       11.6874375869  BUTH      83              0.0000000000
     15433       718  BUTH      DC4             6.7278374260        6.5287486946       11.6836852369  BUTH      83              0.0000000000
     15434       718  BUTH      O1              7.2753291640        6.3820523187       12.7848322897  BUTH      83              0.0000000000
     15435       718  BUTH      DO1             7.3161123645        6.3784796016       12.7445746977  BUTH      83              0.0000000000
     15436       718  BUTH      O2              7.4744350727        6.5087755089       10.7018735654  BUTH      83              0.0000000000
     15437       718  BUTH      DO2             7.4940042882        6.5344031342       10.6877295866  BUTH      83              0.0000000000
     15438       718  BUTH      H1              4.4223859112        8.0082875571       13.3946508766  BUTH      83              0.0000000000
     15439       718  BUTH      H2              5.4802019714        8.8369684889       12.2049585221  BUTH      83              0.0000000000
     15440       718  BUTH      H3              3.7074809772        9.0833046223       12.1550629048  BUTH      83              0.0000000000
     15441       718  BUTH      H4              4.4370685128        7.5043607829       10.3367085922  BUTH      83              0.0000000000
     15442       718  BUTH      H5              3.3403555854        6.7009352953       11.4887228084  BUTH      83              0.0000000000
     15443       718  BUTH      H6              5.2775883334        5.3101785931       10.8066367393  BUTH      83              0.0000000000
     15444       718  BUTH      H7              5.0883593992        5.4982331783       12.5283887618  BUTH      83              0.0000000000
     15445       718  BUTH      H8              8.1664592549        5.9868560522       11.1373073858  BUTH      83              0.0000000000
     15446       718  BUTH      H9              8.2147825890        6.6192268446       12.7731486836  BUTH      83              0.0000000000
     15447       718  BUTH      LPO11           7.0595882370        6.2336497922       13.0170660997  BUTH      83              0.0000000000
     15448       718  BUTH      LPO12           7.6013339304        6.5076792695       12.7638856546  BUTH      83              0.0000000000
     15449       718  BUTH      LPO21           7.3419165596        6.2738669490       10.4788112150  BUTH      83              0.0000000000
     15450       718  BUTH      LPO22           7.6195286550        6.8272829483       10.7009443839  BUTH      83              0.0000000000
     15451       719  BUTH      C1             13.5706492693      -11.0913156479       20.4889933488  BUTH      84              0.0000000000
     15452       719  BUTH      DC1            13.4855216190      -11.0874127387       20.4448890546  BUTH      84              0.0000000000
     15453       719  BUTH      C2             12.4050498218      -10.2073667594       20.9012833084  BUTH      84              0.0000000000
     15454       719  BUTH      DC2            12.3955007537      -10.1894866026       20.9286893798  BUTH      84              0.0000000000
     15455       719  BUTH      C3             11.0406530566      -10.7652657513       20.4986690215  BUTH      84              0.0000000000
     15456       719  BUTH      DC3            11.0258733666      -10.8101294491       20.4012510976  BUTH      84              0.0000000000
     15457       719  BUTH      C4             11.0202628333      -11.1529450458       19.1987499684  BUTH      84              0.0000000000
     15458       719  BUTH      DC4            11.0191476045      -11.1491996857       19.1405613566  BUTH      84              0.0000000000
     15459       719  BUTH      O1             10.8388165397      -12.3605453883       19.0116254672  BUTH      84              0.0000000000
     15460       719  BUTH      DO1            10.7744564549      -12.3059056478       18.9456893189  BUTH      84              0.0000000000
     15461       719  BUTH      O2             10.3817346461      -10.5608797198       18.3478295647  BUTH      84              0.0000000000
     15462       719  BUTH      DO2            10.3794974319      -10.5399061971       18.2966077329  BUTH      84              0.0000000000
     15463       719  BUTH      H1             13.5560588154      -12.0612437655       21.0306090491  BUTH      84              0.0000000000
     15464       719  BUTH      H2             13.5863770951      -11.2972571236       19.3973607436  BUTH      84              0.0000000000
     15465       719  BUTH      H3             14.5328192685      -10.5960002056       20.7404143213  BUTH      84              0.0000000000
     15466       719  BUTH      H4             12.4985092658       -9.2426875136       20.3581624333  BUTH      84              0.0000000000
     15467       719  BUTH      H5             12.4454055038       -9.9790620531       21.9878234048  BUTH      84              0.0000000000
     15468       719  BUTH      H6             10.3006197850       -9.9744284567       20.7461526222  BUTH      84              0.0000000000
     15469       719  BUTH      H7             10.8604922416      -11.5566254309       21.2573606178  BUTH      84              0.0000000000
     15470       719  BUTH      H8              9.9007155289      -11.3778914923       18.1428603657  BUTH      84              0.0000000000
     15471       719  BUTH      H9             10.6728224855      -12.6083599071       18.0896737666  BUTH      84              0.0000000000
     15472       719  BUTH      LPO11          10.8039119675      -12.5253072381       19.3184400752  BUTH      84              0.0000000000
     15473       719  BUTH      LPO12          10.8385580368      -12.4298083877       18.6685473856  BUTH      84              0.0000000000
     15474       719  BUTH      LPO21          10.1422265380      -10.3750790145       18.5227980308  BUTH      84              0.0000000000
     15475       719  BUTH      LPO22          10.5970396942      -10.5301597040       18.0736033500  BUTH      84              0.0000000000
     15476       720  BUTH      C1            -12.5857277498      -16.5094456287      -24.7687291903  BUTH      85              0.0000000000
     15477       720  BUTH      DC1           -12.5913929109      -16.5267940996      -24.7071668158  BUTH      85              0.0000000000
     15478       720  BUTH      C2            -13.7136391651      -16.9420009625      -23.8423021829  BUTH      85              0.0000000000
     15479       720  BUTH      DC2           -13.7770541086      -16.9186347968      -23.8723838884  BUTH      85              0.0000000000
     15480       720  BUTH      C3            -13.2756815224      -16.9699402270      -22.3613146328  BUTH      85              0.0000000000
     15481       720  BUTH      DC3           -13.2449919697      -16.9872848138      -22.3684203807  BUTH      85              0.0000000000
     15482       720  BUTH      C4            -12.1558830187      -17.6986371631      -22.0844546236  BUTH      85              0.0000000000
     15483       720  BUTH      DC4           -12.1615706505      -17.6795113244      -22.0715853781  BUTH      85              0.0000000000
     15484       720  BUTH      O1            -11.3288725855      -17.0631393021      -21.4052735667  BUTH      85              0.0000000000
     15485       720  BUTH      DO1           -11.3422830323      -17.0855230689      -21.3766805080  BUTH      85              0.0000000000
     15486       720  BUTH      O2            -12.2595358834      -18.9228706340      -21.8196856358  BUTH      85              0.0000000000
     15487       720  BUTH      DO2           -12.2832359808      -18.9010484635      -21.8105204645  BUTH      85              0.0000000000
     15488       720  BUTH      H1            -12.1991502301      -15.5056837140      -24.4906269785  BUTH      85              0.0000000000
     15489       720  BUTH      H2            -11.7357968803      -17.2241099771      -24.7341837397  BUTH      85              0.0000000000
     15490       720  BUTH      H3            -12.9280849331      -16.4549071160      -25.8242565986  BUTH      85              0.0000000000
     15491       720  BUTH      H4            -14.0547024724      -17.9561069214      -24.1416112616  BUTH      85              0.0000000000
     15492       720  BUTH      H5            -14.5754799211      -16.2507119498      -23.9592252908  BUTH      85              0.0000000000
     15493       720  BUTH      H6            -14.1534546614      -17.3725877172      -21.8120329960  BUTH      85              0.0000000000
     15494       720  BUTH      H7            -13.2309700554      -15.9013322283      -22.0606506494  BUTH      85              0.0000000000
     15495       720  BUTH      H8            -11.3707642336      -19.1216634282      -21.4858198251  BUTH      85              0.0000000000
     15496       720  BUTH      H9            -10.5238461463      -17.5557468202      -21.1856573895  BUTH      85              0.0000000000
     15497       720  BUTH      LPO11         -11.4508787003      -16.7421255591      -21.3377111159  BUTH      85              0.0000000000
     15498       720  BUTH      LPO12         -11.0477840136      -17.2619096523      -21.3421897922  BUTH      85              0.0000000000
     15499       720  BUTH      LPO21         -12.4406670005      -18.9345196827      -21.5204268547  BUTH      85              0.0000000000
     15500       720  BUTH      LPO22         -12.2447090483      -19.0830585089      -22.1305232295  BUTH      85              0.0000000000
     15501       721  BUTH      C1             25.3369179755        8.4090160020      -12.8682134668  BUTH      86              0.0000000000
     15502       721  BUTH      DC1            25.2959365847        8.4081434507      -12.8545592787  BUTH      86              0.0000000000
     15503       721  BUTH      C2             25.3791871249        9.8973652912      -12.5286375841  BUTH      86              0.0000000000
     15504       721  BUTH      DC2            25.4319595085        9.8906863290      -12.5571066236  BUTH      86              0.0000000000
     15505       721  BUTH      C3             24.5344821558       10.2720894858      -11.2956125947  BUTH      86              0.0000000000
     15506       721  BUTH      DC3            24.4951009032       10.2359492256      -11.3225039063  BUTH      86              0.0000000000
     15507       721  BUTH      C4             23.2544949064        9.8142208020      -11.3238088128  BUTH      86              0.0000000000
     15508       721  BUTH      DC4            23.2542760751        9.7971142186      -11.3240516300  BUTH      86              0.0000000000
     15509       721  BUTH      O1             22.9674760442        8.9120798192      -10.5164362259  BUTH      86              0.0000000000
     15510       721  BUTH      DO1            22.9247794385        8.9317128189      -10.5304787916  BUTH      86              0.0000000000
     15511       721  BUTH      O2             22.3215466772       10.4784894046      -11.8080312451  BUTH      86              0.0000000000
     15512       721  BUTH      DO2            22.3368233149       10.4659270896      -11.8056461158  BUTH      86              0.0000000000
     15513       721  BUTH      H1             25.7624415414        7.8042022213      -12.0390868255  BUTH      86              0.0000000000
     15514       721  BUTH      H2             24.3000399186        8.0555326877      -13.0532930215  BUTH      86              0.0000000000
     15515       721  BUTH      H3             25.9360563013        8.2031373027      -13.7808843969  BUTH      86              0.0000000000
     15516       721  BUTH      H4             25.0225711787       10.4912000232      -13.3972608506  BUTH      86              0.0000000000
     15517       721  BUTH      H5             26.4287713887       10.2112808365      -12.3438379533  BUTH      86              0.0000000000
     15518       721  BUTH      H6             24.5735733131       11.3811297635      -11.2424849597  BUTH      86              0.0000000000
     15519       721  BUTH      H7             25.1269863857        9.9426953825      -10.4154084920  BUTH      86              0.0000000000
     15520       721  BUTH      H8             21.5763782798       10.1436713386      -11.2850389678  BUTH      86              0.0000000000
     15521       721  BUTH      H9             22.0333572388        8.6545135616      -10.5099032110  BUTH      86              0.0000000000
     15522       721  BUTH      LPO11          23.2481373030        8.8297038719      -10.3242294072  BUTH      86              0.0000000000
     15523       721  BUTH      LPO12          22.6315864128        8.8208651599      -10.5532878399  BUTH      86              0.0000000000
     15524       721  BUTH      LPO21          22.3572207085       10.7974367038      -11.6683889027  BUTH      86              0.0000000000
     15525       721  BUTH      LPO22          22.2544572524       10.3266883882      -12.1161796842  BUTH      86              0.0000000000
     15526       722  BUTH      C1             21.0600050072       -1.7269454362      -12.5420522268  BUTH      87              0.0000000000
     15527       722  BUTH      DC1            21.0168231456       -1.7285336806      -12.5878018573  BUTH      87              0.0000000000
     15528       722  BUTH      C2             19.7130948155       -2.0256489271      -13.1901884253  BUTH      87              0.0000000000
     15529       722  BUTH      DC2            19.6417485649       -2.0244927874      -13.1100156475  BUTH      87              0.0000000000
     15530       722  BUTH      C3             19.8815613725       -2.6349156844      -14.5945043662  BUTH      87              0.0000000000
     15531       722  BUTH      DC3            19.8909711502       -2.6016431376      -14.5728638180  BUTH      87              0.0000000000
     15532       722  BUTH      C4             20.6604599463       -1.9098716786      -15.4427643612  BUTH      87              0.0000000000
     15533       722  BUTH      DC4            20.6424757800       -1.9035409236      -15.4079433584  BUTH      87              0.0000000000
     15534       722  BUTH      O1             21.7560511757       -2.4034687828      -15.7256112933  BUTH      87              0.0000000000
     15535       722  BUTH      DO1            21.7112022033       -2.3647394141      -15.7442057051  BUTH      87              0.0000000000
     15536       722  BUTH      O2             20.1915995461       -1.0469251978      -16.1970254809  BUTH      87              0.0000000000
     15537       722  BUTH      DO2            20.1796103713       -1.0357277056      -16.1703975761  BUTH      87              0.0000000000
     15538       722  BUTH      H1             21.6555662958       -2.6572430712      -12.4229973573  BUTH      87              0.0000000000
     15539       722  BUTH      H2             21.6667822635       -1.0315239222      -13.1605433581  BUTH      87              0.0000000000
     15540       722  BUTH      H3             20.9517502177       -1.2749862729      -11.5329264585  BUTH      87              0.0000000000
     15541       722  BUTH      H4             19.1328339778       -1.0824512094      -13.2796111610  BUTH      87              0.0000000000
     15542       722  BUTH      H5             19.1394556771       -2.7347718396      -12.5558353418  BUTH      87              0.0000000000
     15543       722  BUTH      H6             18.8571760265       -2.7643555444      -15.0046275013  BUTH      87              0.0000000000
     15544       722  BUTH      H7             20.2411531328       -3.6745675785      -14.4391380090  BUTH      87              0.0000000000
     15545       722  BUTH      H8             20.7309674451       -1.2638118173      -16.9735191794  BUTH      87              0.0000000000
     15546       722  BUTH      H9             22.2453306390       -1.9396219611      -16.4216089461  BUTH      87              0.0000000000
     15547       722  BUTH      LPO11          21.7950319005       -2.7102543921      -15.5617116501  BUTH      87              0.0000000000
     15548       722  BUTH      LPO12          21.9295471925       -2.1924103951      -15.9443656969  BUTH      87              0.0000000000
     15549       722  BUTH      LPO21          19.8799511284       -1.1720859255      -16.2955650974  BUTH      87              0.0000000000
     15550       722  BUTH      LPO22          20.3398765907       -0.7467903928      -16.0948833402  BUTH      87              0.0000000000
     15551       723  BUTH      C1             15.9273197856      -19.6806868901       13.2893048584  BUTH      88              0.0000000000
     15552       723  BUTH      DC1            15.9285872593      -19.7138251851       13.2728059676  BUTH      88              0.0000000000
     15553       723  BUTH      C2             16.7558573433      -20.5044944644       12.3112200945  BUTH      88              0.0000000000
     15554       723  BUTH      DC2            16.7971173733      -20.4324346674       12.2774074231  BUTH      88              0.0000000000
     15555       723  BUTH      C3             16.0848552901      -21.8559402728       11.9965673928  BUTH      88              0.0000000000
     15556       723  BUTH      DC3            16.1011164061      -21.8320702357       12.0543251113  BUTH      88              0.0000000000
     15557       723  BUTH      C4             15.8358675584      -22.7055222252       13.0274191985  BUTH      88              0.0000000000
     15558       723  BUTH      DC4            15.8508022866      -22.6952693792       13.0265289092  BUTH      88              0.0000000000
     15559       723  BUTH      O1             14.6658617677      -22.8064977162       13.4210103912  BUTH      88              0.0000000000
     15560       723  BUTH      DO1            14.7167456423      -22.8423784746       13.4342767727  BUTH      88              0.0000000000
     15561       723  BUTH      O2             16.6272834568      -23.5840186919       13.3779489346  BUTH      88              0.0000000000
     15562       723  BUTH      DO2            16.6408929589      -23.5773655212       13.3612411775  BUTH      88              0.0000000000
     15563       723  BUTH      H1             14.8902954434      -19.5471062434       12.9137283338  BUTH      88              0.0000000000
     15564       723  BUTH      H2             15.8555254374      -20.1854052214       14.2764350310  BUTH      88              0.0000000000
     15565       723  BUTH      H3             16.3667456063      -18.6734936423       13.4529743746  BUTH      88              0.0000000000
     15566       723  BUTH      H4             17.7687653152      -20.6813857574       12.7319907100  BUTH      88              0.0000000000
     15567       723  BUTH      H5             16.8784918353      -19.9449325015       11.3592893241  BUTH      88              0.0000000000
     15568       723  BUTH      H6             16.7299128688      -22.3414099974       11.2333237445  BUTH      88              0.0000000000
     15569       723  BUTH      H7             15.1604554600      -21.5830172719       11.4440106168  BUTH      88              0.0000000000
     15570       723  BUTH      H8             16.0222968226      -24.0657661160       13.9634492265  BUTH      88              0.0000000000
     15571       723  BUTH      H9             14.5220266828      -23.4818644114       14.1008282311  BUTH      88              0.0000000000
     15572       723  BUTH      LPO11          14.4576070501      -22.5980547004       13.2321149658  BUTH      88              0.0000000000
     15573       723  BUTH      LPO12          14.6479534045      -23.0344593774       13.6859873176  BUTH      88              0.0000000000
     15574       723  BUTH      LPO21          16.6452149718      -23.8034840560       13.1058948688  BUTH      88              0.0000000000
     15575       723  BUTH      LPO22          16.8366921060      -23.4291457289       13.6117488126  BUTH      88              0.0000000000
     15576       724  BUTH      C1            -13.3972834864       -1.7935531117       15.5539146331  BUTH      89              0.0000000000
     15577       724  BUTH      DC1           -13.3880449183       -1.7437691941       15.5325787736  BUTH      89              0.0000000000
     15578       724  BUTH      C2            -12.8913961780       -1.1923727505       14.2531956014  BUTH      89              0.0000000000
     15579       724  BUTH      DC2           -12.8539299509       -1.2669936001       14.1886986663  BUTH      89              0.0000000000
     15580       724  BUTH      C3            -12.7010073116        0.3305541668       14.3791400867  BUTH      89              0.0000000000
     15581       724  BUTH      DC3           -12.7643853026        0.3194755792       14.3856887329  BUTH      89              0.0000000000
     15582       724  BUTH      C4            -13.7687079953        0.9762269249       14.9239780855  BUTH      89              0.0000000000
     15583       724  BUTH      DC4           -13.7693551566        0.9731949923       14.9181338186  BUTH      89              0.0000000000
     15584       724  BUTH      O1            -13.5825382324        1.4879572004       16.0307387335  BUTH      89              0.0000000000
     15585       724  BUTH      DO1           -13.6348112772        1.5200413764       15.9832542721  BUTH      89              0.0000000000
     15586       724  BUTH      O2            -14.5606574321        1.6132084097       14.2529732059  BUTH      89              0.0000000000
     15587       724  BUTH      DO2           -14.5619777291        1.6105853329       14.2407283272  BUTH      89              0.0000000000
     15588       724  BUTH      H1            -12.6412780815       -1.6788696750       16.3599075225  BUTH      89              0.0000000000
     15589       724  BUTH      H2            -14.3392348205       -1.3082727960       15.8879081950  BUTH      89              0.0000000000
     15590       724  BUTH      H3            -13.5949537694       -2.8832629819       15.4657111215  BUTH      89              0.0000000000
     15591       724  BUTH      H4            -13.6274515057       -1.4112963830       13.4503157859  BUTH      89              0.0000000000
     15592       724  BUTH      H5            -11.9165364499       -1.6578576621       13.9937860647  BUTH      89              0.0000000000
     15593       724  BUTH      H6            -12.4464101452        0.7024038355       13.3636455729  BUTH      89              0.0000000000
     15594       724  BUTH      H7            -11.7533989518        0.4769783855       14.9403168366  BUTH      89              0.0000000000
     15595       724  BUTH      H8            -14.7028002752        2.2856364204       14.9374700887  BUTH      89              0.0000000000
     15596       724  BUTH      H9            -14.3091168480        2.0457359964       16.3468515774  BUTH      89              0.0000000000
     15597       724  BUTH      LPO11         -13.2535070485        1.4305499702       16.1353470027  BUTH      89              0.0000000000
     15598       724  BUTH      LPO12         -13.8754342071        1.6446903374       16.1409506737  BUTH      89              0.0000000000
     15599       724  BUTH      LPO21         -14.3647888932        1.7882883847       14.0217103299  BUTH      89              0.0000000000
     15600       724  BUTH      LPO22         -14.8599911260        1.4324844779       14.2684069391  BUTH      89              0.0000000000
     15601       725  BUTH      C1             19.7377345021       29.1534488226       21.3481656089  BUTH      90              0.0000000000
     15602       725  BUTH      DC1            19.7628659052       29.1454714455       21.3271973863  BUTH      90              0.0000000000
     15603       725  BUTH      C2             19.4907292919       27.8429793654       20.6313910994  BUTH      90              0.0000000000
     15604       725  BUTH      DC2            19.4775443867       27.8102808027       20.7088128974  BUTH      90              0.0000000000
     15605       725  BUTH      C3             20.5168315353       27.6378241826       19.5149274134  BUTH      90              0.0000000000
     15606       725  BUTH      DC3            20.5150824157       27.7060586966       19.5142849861  BUTH      90              0.0000000000
     15607       725  BUTH      C4             20.5571883011       28.6669197544       18.6181254546  BUTH      90              0.0000000000
     15608       725  BUTH      DC4            20.5759821912       28.6967403185       18.6240232058  BUTH      90              0.0000000000
     15609       725  BUTH      O1             21.6782158131       29.1905013951       18.4682869803  BUTH      90              0.0000000000
     15610       725  BUTH      DO1            21.6677925009       29.1909907927       18.4242955057  BUTH      90              0.0000000000
     15611       725  BUTH      O2             19.7659547419       28.7737786586       17.6597749768  BUTH      90              0.0000000000
     15612       725  BUTH      DO2            19.7904019855       28.8070063256       17.6643960009  BUTH      90              0.0000000000
     15613       725  BUTH      H1             20.7910291119       29.2779182556       21.6789205421  BUTH      90              0.0000000000
     15614       725  BUTH      H2             19.5486085883       29.9931273831       20.6456755352  BUTH      90              0.0000000000
     15615       725  BUTH      H3             19.0762331887       29.2468028073       22.2358716682  BUTH      90              0.0000000000
     15616       725  BUTH      H4             18.4731055045       27.8549332515       20.1857231379  BUTH      90              0.0000000000
     15617       725  BUTH      H5             19.5283224156       26.9889915418       21.3410477443  BUTH      90              0.0000000000
     15618       725  BUTH      H6             20.2259419751       26.6589849282       19.0772311970  BUTH      90              0.0000000000
     15619       725  BUTH      H7             21.4826865658       27.4189616790       20.0184592048  BUTH      90              0.0000000000
     15620       725  BUTH      H8             20.3218559606       28.4690954482       16.9255801959  BUTH      90              0.0000000000
     15621       725  BUTH      H9             21.6990236296       29.8945059358       17.8027754166  BUTH      90              0.0000000000
     15622       725  BUTH      LPO11          21.9129156967       29.0317313916       18.6737329601  BUTH      90              0.0000000000
     15623       725  BUTH      LPO12          21.6588632365       29.4498504612       18.2340573074  BUTH      90              0.0000000000
     15624       725  BUTH      LPO21          19.5503054371       28.4999113970       17.6912726016  BUTH      90              0.0000000000
     15625       725  BUTH      LPO22          19.7554813157       29.1167251455       17.5906517935  BUTH      90              0.0000000000
     15626       726  BUTH      C1             25.9745744582      -16.4455130987       -2.8610296441  BUTH      91              0.0000000000
     15627       726  BUTH      DC1            25.9444012494      -16.4928485320       -2.8670968264  BUTH      91              0.0000000000
     15628       726  BUTH      C2             26.7195401323      -17.7565925295       -2.6655481934  BUTH      91              0.0000000000
     15629       726  BUTH      DC2            26.7767745011      -17.7392854060       -2.6900333450  BUTH      91              0.0000000000
     15630       726  BUTH      C3             25.7718464252      -18.9681188644       -2.7779294073  BUTH      91              0.0000000000
     15631       726  BUTH      DC3            25.7258230712      -18.9349387835       -2.7528262198  BUTH      91              0.0000000000
     15632       726  BUTH      C4             24.5985018155      -18.8144793122       -2.1042724559  BUTH      91              0.0000000000
     15633       726  BUTH      DC4            24.5916424804      -18.8071102151       -2.0955191762  BUTH      91              0.0000000000
     15634       726  BUTH      O1             23.5794169683      -18.6854294863       -2.7992443437  BUTH      91              0.0000000000
     15635       726  BUTH      DO1            23.5732433729      -18.7124024917       -2.7384426864  BUTH      91              0.0000000000
     15636       726  BUTH      O2             24.3864855191      -19.3176803410       -1.0031497706  BUTH      91              0.0000000000
     15637       726  BUTH      DO2            24.3905130709      -19.3167063397       -0.9949691389  BUTH      91              0.0000000000
     15638       726  BUTH      H1             25.2995075456      -16.5044984292       -3.7414422721  BUTH      91              0.0000000000
     15639       726  BUTH      H2             25.3316567564      -16.2146109015       -1.9848664148  BUTH      91              0.0000000000
     15640       726  BUTH      H3             26.6725824971      -15.5915782762       -2.9948246238  BUTH      91              0.0000000000
     15641       726  BUTH      H4             27.1959072305      -17.7445037887       -1.6619301136  BUTH      91              0.0000000000
     15642       726  BUTH      H5             27.5362955581      -17.8542165885       -3.4123420859  BUTH      91              0.0000000000
     15643       726  BUTH      H6             26.3551029172      -19.8493578134       -2.4350726161  BUTH      91              0.0000000000
     15644       726  BUTH      H7             25.6439995301      -19.1432436996       -3.8675657984  BUTH      91              0.0000000000
     15645       726  BUTH      H8             23.4424304729      -19.4789361650       -1.1569568867  BUTH      91              0.0000000000
     15646       726  BUTH      H9             22.7477749314      -18.7071769572       -2.3023946984  BUTH      91              0.0000000000
     15647       726  BUTH      LPO11          23.6637206208      -18.6974667647       -3.1387262991  BUTH      91              0.0000000000
     15648       726  BUTH      LPO12          23.2983893019      -18.6484804454       -2.5939196761  BUTH      91              0.0000000000
     15649       726  BUTH      LPO21          24.5158450508      -19.6421853069       -1.0246588079  BUTH      91              0.0000000000
     15650       726  BUTH      LPO22          24.3745507596      -19.0480260749       -0.7803401247  BUTH      91              0.0000000000
     15651       727  BUTH      C1            -21.8083214152      -22.4699185963      -17.7232823040  BUTH      92              0.0000000000
     15652       727  BUTH      DC1           -21.8011369519      -22.4956504441      -17.7378269697  BUTH      92              0.0000000000
     15653       727  BUTH      C2            -22.6729727206      -22.5260181364      -18.9606135954  BUTH      92              0.0000000000
     15654       727  BUTH      DC2           -22.7061777353      -22.4712371662      -18.9217957182  BUTH      92              0.0000000000
     15655       727  BUTH      C3            -22.6566890532      -23.9379987962      -19.5694926686  BUTH      92              0.0000000000
     15656       727  BUTH      DC3           -22.6081201624      -23.9378899381      -19.5427149685  BUTH      92              0.0000000000
     15657       727  BUTH      C4            -21.4510537079      -24.5333875470      -19.7833849971  BUTH      92              0.0000000000
     15658       727  BUTH      DC4           -21.4515452614      -24.5235916569      -19.7845883657  BUTH      92              0.0000000000
     15659       727  BUTH      O1            -21.2907540579      -25.6181035207      -19.2153677662  BUTH      92              0.0000000000
     15660       727  BUTH      DO1           -21.2608923444      -25.5982536578      -19.2893755080  BUTH      92              0.0000000000
     15661       727  BUTH      O2            -20.8406099355      -24.4821222899      -20.8395707604  BUTH      92              0.0000000000
     15662       727  BUTH      DO2           -20.8368097858      -24.4824792494      -20.8467966767  BUTH      92              0.0000000000
     15663       727  BUTH      H1            -22.0822191250      -23.2859955848      -17.0209153096  BUTH      92              0.0000000000
     15664       727  BUTH      H2            -20.7443112788      -22.6258408835      -18.0023730968  BUTH      92              0.0000000000
     15665       727  BUTH      H3            -21.8965496394      -21.4948849132      -17.1980717774  BUTH      92              0.0000000000
     15666       727  BUTH      H4            -22.2925955098      -21.8065180778      -19.7168898968  BUTH      92              0.0000000000
     15667       727  BUTH      H5            -23.7228322935      -22.2420585785      -18.7337152775  BUTH      92              0.0000000000
     15668       727  BUTH      H6            -23.1833726964      -23.7499484865      -20.5294730962  BUTH      92              0.0000000000
     15669       727  BUTH      H7            -23.3747589669      -24.5464848008      -18.9792034334  BUTH      92              0.0000000000
     15670       727  BUTH      H8            -20.4263361049      -25.3478292739      -20.6987566592  BUTH      92              0.0000000000
     15671       727  BUTH      H9            -20.4775024503      -26.0832838200      -19.4627341176  BUTH      92              0.0000000000
     15672       727  BUTH      LPO11         -21.5771019316      -25.7005615513      -19.0317770029  BUTH      92              0.0000000000
     15673       727  BUTH      LPO12         -20.9733280641      -25.7459449710      -19.2888340990  BUTH      92              0.0000000000
     15674       727  BUTH      LPO21         -21.0773957294      -24.5554965050      -21.0866511368  BUTH      92              0.0000000000
     15675       727  BUTH      LPO22         -20.5729371139      -24.2643704662      -20.7809584426  BUTH      92              0.0000000000
     15676       728  BUTH      C1             16.0725677391      -11.3749518287       -6.3679750764  BUTH      93              0.0000000000
     15677       728  BUTH      DC1            16.0830233273      -11.3588521683       -6.2952136496  BUTH      93              0.0000000000
     15678       728  BUTH      C2             16.0613875761      -12.5448270874       -5.3925676015  BUTH      93              0.0000000000
     15679       728  BUTH      DC2            16.0282006644      -12.5736842299       -5.4063679056  BUTH      93              0.0000000000
     15680       728  BUTH      C3             16.0026278492      -12.0881943379       -3.9195511139  BUTH      93              0.0000000000
     15681       728  BUTH      DC3            16.0321570566      -12.0385199913       -3.8993618460  BUTH      93              0.0000000000
     15682       728  BUTH      C4             16.9048713323      -11.1277732052       -3.5670270956  BUTH      93              0.0000000000
     15683       728  BUTH      DC4            16.9170540306      -11.1219208783       -3.5619131986  BUTH      93              0.0000000000
     15684       728  BUTH      O1             16.3932587833      -10.0778683302       -3.1506670665  BUTH      93              0.0000000000
     15685       728  BUTH      DO1            16.4476412208      -10.1008321921       -3.1159986673  BUTH      93              0.0000000000
     15686       728  BUTH      O2             17.9665471351      -11.3913980203       -2.9740218671  BUTH      93              0.0000000000
     15687       728  BUTH      DO2            17.9793869198      -11.4024490005       -2.9670708054  BUTH      93              0.0000000000
     15688       728  BUTH      H1             15.1696517416      -10.7376754486       -6.2542098837  BUTH      93              0.0000000000
     15689       728  BUTH      H2             16.9711456359      -10.7387627741       -6.2191723521  BUTH      93              0.0000000000
     15690       728  BUTH      H3             16.0978835183      -11.7376632055       -7.4177943792  BUTH      93              0.0000000000
     15691       728  BUTH      H4             16.9798936437      -13.1495722801       -5.5505260006  BUTH      93              0.0000000000
     15692       728  BUTH      H5             15.1990434998      -13.2093751168       -5.6140616475  BUTH      93              0.0000000000
     15693       728  BUTH      H6             16.1267928739      -13.0224385363       -3.3312554184  BUTH      93              0.0000000000
     15694       728  BUTH      H7             14.9402880806      -11.8057371295       -3.7583892654  BUTH      93              0.0000000000
     15695       728  BUTH      H8             17.9753034887      -10.5702503598       -2.4577468959  BUTH      93              0.0000000000
     15696       728  BUTH      H9             17.0279784751       -9.4256425551       -2.8179608108  BUTH      93              0.0000000000
     15697       728  BUTH      LPO11          16.0443432196      -10.1051951662       -3.1540097365  BUTH      93              0.0000000000
     15698       728  BUTH      LPO12          16.6433879819       -9.8478172128       -3.0669301725  BUTH      93              0.0000000000
     15699       728  BUTH      LPO21          17.8794660049      -11.6256272585       -2.7289636276  BUTH      93              0.0000000000
     15700       728  BUTH      LPO22          18.2201641599      -11.3287427375       -3.2069440006  BUTH      93              0.0000000000
     15701       729  BUTH      C1             -3.7958343022        4.0175986932      -10.6728258837  BUTH      94              0.0000000000
     15702       729  BUTH      DC1            -3.8041131973        3.9973368867      -10.7434956981  BUTH      94              0.0000000000
     15703       729  BUTH      C2             -2.6557273102        3.6320166814      -11.6067857357  BUTH      94              0.0000000000
     15704       729  BUTH      DC2            -2.6063835395        3.5880684220      -11.5581687877  BUTH      94              0.0000000000
     15705       729  BUTH      C3             -2.7218316275        4.3630242015      -12.9503374730  BUTH      94              0.0000000000
     15706       729  BUTH      DC3            -2.8096838981        4.3242454303      -12.9602830999  BUTH      94              0.0000000000
     15707       729  BUTH      C4             -3.9679566381        4.2684596567      -13.4580087367  BUTH      94              0.0000000000
     15708       729  BUTH      DC4            -3.9930863742        4.2527376962      -13.4776681197  BUTH      94              0.0000000000
     15709       729  BUTH      O1             -4.5149463627        5.3252199004      -13.7686539346  BUTH      94              0.0000000000
     15710       729  BUTH      DO1            -4.5439931785        5.2454981302      -13.8296262994  BUTH      94              0.0000000000
     15711       729  BUTH      O2             -4.3521546608        3.3819913435      -14.1967521298  BUTH      94              0.0000000000
     15712       729  BUTH      DO2            -4.3606303449        3.3565243724      -14.2246285078  BUTH      94              0.0000000000
     15713       729  BUTH      H1             -3.8146500493        5.1200542594      -10.5365955842  BUTH      94              0.0000000000
     15714       729  BUTH      H2             -4.7885120918        3.7038051728      -11.0606988448  BUTH      94              0.0000000000
     15715       729  BUTH      H3             -3.6702449684        3.5668063751       -9.6651877516  BUTH      94              0.0000000000
     15716       729  BUTH      H4             -2.7111084555        2.5445251999      -11.8272765672  BUTH      94              0.0000000000
     15717       729  BUTH      H5             -1.6801703372        3.8558991720      -11.1246174839  BUTH      94              0.0000000000
     15718       729  BUTH      H6             -1.9378781289        3.9101406133      -13.5942585620  BUTH      94              0.0000000000
     15719       729  BUTH      H7             -2.3623014300        5.3995549362      -12.7752287267  BUTH      94              0.0000000000
     15720       729  BUTH      H8             -5.0008909959        3.9944125525      -14.5775164012  BUTH      94              0.0000000000
     15721       729  BUTH      H9             -5.3677212119        5.2191939684      -14.2164201220  BUTH      94              0.0000000000
     15722       729  BUTH      LPO11          -4.3016091898        5.5945553838      -13.7019782416  BUTH      94              0.0000000000
     15723       729  BUTH      LPO12          -4.8347688596        5.2616094093      -13.8958045379  BUTH      94              0.0000000000
     15724       729  BUTH      LPO21          -4.1116599497        3.3600675395      -14.4500930872  BUTH      94              0.0000000000
     15725       729  BUTH      LPO22          -4.5521436208        3.1744071964      -13.9982244548  BUTH      94              0.0000000000
     15726       730  BUTH      C1             20.8683634348      -10.4342156518       27.8303281683  BUTH      95              0.0000000000
     15727       730  BUTH      DC1            20.8795118269      -10.3587481012       27.8579701441  BUTH      95              0.0000000000
     15728       730  BUTH      C2             21.6878959890       -9.3756024533       28.5538451256  BUTH      95              0.0000000000
     15729       730  BUTH      DC2            21.7301447145       -9.3852084327       28.5991234576  BUTH      95              0.0000000000
     15730       730  BUTH      C3             20.9569351890       -8.0212203910       28.5534429808  BUTH      95              0.0000000000
     15731       730  BUTH      DC3            20.9360991056       -8.0061459401       28.4927634603  BUTH      95              0.0000000000
     15732       730  BUTH      C4             20.5050318411       -7.6699040900       27.3176243833  BUTH      95              0.0000000000
     15733       730  BUTH      DC4            20.5248626521       -7.6422318864       27.3040973475  BUTH      95              0.0000000000
     15734       730  BUTH      O1             19.2851128654       -7.4937905553       27.2256033842  BUTH      95              0.0000000000
     15735       730  BUTH      DO1            19.3411955810       -7.4397719537       27.1801620762  BUTH      95              0.0000000000
     15736       730  BUTH      O2             21.0990025145       -6.8724306036       26.5828485025  BUTH      95              0.0000000000
     15737       730  BUTH      DO2            21.1382659001       -6.8260556817       26.5772723686  BUTH      95              0.0000000000
     15738       730  BUTH      H1             19.8892853227      -10.6128365804       28.3241111307  BUTH      95              0.0000000000
     15739       730  BUTH      H2             20.6617950335      -10.1614015153       26.7733404938  BUTH      95              0.0000000000
     15740       730  BUTH      H3             21.4115140625      -11.4031034539       27.8065621739  BUTH      95              0.0000000000
     15741       730  BUTH      H4             22.6697424336       -9.2688844968       28.0450132899  BUTH      95              0.0000000000
     15742       730  BUTH      H5             21.8897209295       -9.6965670379       29.5981484485  BUTH      95              0.0000000000
     15743       730  BUTH      H6             21.6685798302       -7.2901789903       28.9932854261  BUTH      95              0.0000000000
     15744       730  BUTH      H7             20.1614144047       -8.1246210459       29.3220625136  BUTH      95              0.0000000000
     15745       730  BUTH      H8             20.2758617980       -6.7053034936       26.0976599927  BUTH      95              0.0000000000
     15746       730  BUTH      H9             18.9914558194       -7.1537281090       26.3670673785  BUTH      95              0.0000000000
     15747       730  BUTH      LPO11          19.1325487831       -7.5483583585       27.5358396742  BUTH      95              0.0000000000
     15748       730  BUTH      LPO12          19.2013769916       -7.4051093221       26.8975425022  BUTH      95              0.0000000000
     15749       730  BUTH      LPO21          21.1345553852       -6.5795002637       26.7710712678  BUTH      95              0.0000000000
     15750       730  BUTH      LPO22          21.2794207460       -7.0692946761       26.3565880360  BUTH      95              0.0000000000
     15751       731  BUTH      C1            -23.2527631352       -9.9561807531       20.0629847579  BUTH      96              0.0000000000
     15752       731  BUTH      DC1           -23.3012691605       -9.9866531231       20.1114041506  BUTH      96              0.0000000000
     15753       731  BUTH      C2            -22.9175662251       -9.7244870139       21.5259276957  BUTH      96              0.0000000000
     15754       731  BUTH      DC2           -22.8806464322       -9.6728384508       21.5058935388  BUTH      96              0.0000000000
     15755       731  BUTH      C3            -22.9867520302      -11.0172853661       22.3617433788  BUTH      96              0.0000000000
     15756       731  BUTH      DC3           -23.0459747855      -11.0339011694       22.3392542604  BUTH      96              0.0000000000
     15757       731  BUTH      C4            -24.1638729142      -11.6893246164       22.2861057133  BUTH      96              0.0000000000
     15758       731  BUTH      DC4           -24.1804086714      -11.6905189344       22.2809540398  BUTH      96              0.0000000000
     15759       731  BUTH      O1            -24.1208563321      -12.8326620758       21.8149988391  BUTH      96              0.0000000000
     15760       731  BUTH      DO1           -24.1841488636      -12.8211860656       21.8738467636  BUTH      96              0.0000000000
     15761       731  BUTH      O2            -25.0508412712      -11.5762132575       23.1101362144  BUTH      96              0.0000000000
     15762       731  BUTH      DO2           -25.0560055686      -11.5771310001       23.1124238242  BUTH      96              0.0000000000
     15763       731  BUTH      H1            -22.5709000342      -10.7108303970       19.6158968192  BUTH      96              0.0000000000
     15764       731  BUTH      H2            -24.2964048998      -10.3170993530       19.9410395614  BUTH      96              0.0000000000
     15765       731  BUTH      H3            -23.1337889476       -9.0236327139       19.4709372104  BUTH      96              0.0000000000
     15766       731  BUTH      H4            -23.6171883747       -8.9793530798       21.9613875323  BUTH      96              0.0000000000
     15767       731  BUTH      H5            -21.8906369665       -9.3065675305       21.5972060471  BUTH      96              0.0000000000
     15768       731  BUTH      H6            -22.7477674801      -10.7196632143       23.4051169649  BUTH      96              0.0000000000
     15769       731  BUTH      H7            -22.1017889935      -11.6002418337       22.0280920928  BUTH      96              0.0000000000
     15770       731  BUTH      H8            -25.3363329080      -12.4978060700       23.0098306147  BUTH      96              0.0000000000
     15771       731  BUTH      H9            -24.9558840133      -13.3226694451       21.8547801114  BUTH      96              0.0000000000
     15772       731  BUTH      LPO11         -23.7918899019      -12.9136109575       21.7270877115  BUTH      96              0.0000000000
     15773       731  BUTH      LPO12         -24.4414994492      -12.9729384807       21.8117551180  BUTH      96              0.0000000000
     15774       731  BUTH      LPO21         -24.8895250064      -11.5848574742       23.4206234769  BUTH      96              0.0000000000
     15775       731  BUTH      LPO22         -25.3073836270      -11.4037541662       22.9459902990  BUTH      96              0.0000000000
     15776       732  BUTH      C1             -2.3290015731      -20.4767433391       18.9116300527  BUTH      97              0.0000000000
     15777       732  BUTH      DC1            -2.3460607580      -20.4997233495       18.8942393842  BUTH      97              0.0000000000
     15778       732  BUTH      C2             -1.8774737252      -21.6069563295       17.9884671655  BUTH      97              0.0000000000
     15779       732  BUTH      DC2            -1.8036723467      -21.5490000828       17.9454266168  BUTH      97              0.0000000000
     15780       732  BUTH      C3             -2.9728001824      -22.6734383416       17.7455349732  BUTH      97              0.0000000000
     15781       732  BUTH      DC3            -2.9621279580      -22.6429053574       17.7691299028  BUTH      97              0.0000000000
     15782       732  BUTH      C4             -3.6885303195      -23.1206925170       18.8207542597  BUTH      97              0.0000000000
     15783       732  BUTH      DC4            -3.6791364567      -23.0933192633       18.7914457191  BUTH      97              0.0000000000
     15784       732  BUTH      O1             -4.8644180194      -22.7164472851       18.8418560986  BUTH      97              0.0000000000
     15785       732  BUTH      DO1            -4.8497177453      -22.7422318234       18.8520468041  BUTH      97              0.0000000000
     15786       732  BUTH      O2             -3.3888790247      -24.1821970525       19.4169764355  BUTH      97              0.0000000000
     15787       732  BUTH      DO2            -3.3773544979      -24.1531488828       19.3799497663  BUTH      97              0.0000000000
     15788       732  BUTH      H1             -3.2180436517      -19.9518889631       18.5011997097  BUTH      97              0.0000000000
     15789       732  BUTH      H2             -2.6295073062      -20.8670052304       19.9074779140  BUTH      97              0.0000000000
     15790       732  BUTH      H3             -1.5222042136      -19.7325022744       19.0833980905  BUTH      97              0.0000000000
     15791       732  BUTH      H4             -1.0003304718      -22.1271812460       18.4292695590  BUTH      97              0.0000000000
     15792       732  BUTH      H5             -1.5330126298      -21.1969594773       17.0150350236  BUTH      97              0.0000000000
     15793       732  BUTH      H6             -2.4498103992      -23.5199382122       17.2513278751  BUTH      97              0.0000000000
     15794       732  BUTH      H7             -3.6050852757      -22.2451081600       16.9386459989  BUTH      97              0.0000000000
     15795       732  BUTH      H8             -4.1546225600      -24.3327607042       19.9930557919  BUTH      97              0.0000000000
     15796       732  BUTH      H9             -5.4106550160      -23.1139241982       19.5365490143  BUTH      97              0.0000000000
     15797       732  BUTH      LPO11          -4.9260864935      -22.5130512049       18.5637787103  BUTH      97              0.0000000000
     15798       732  BUTH      LPO12          -5.0291256527      -22.8420200646       19.1239959089  BUTH      97              0.0000000000
     15799       732  BUTH      LPO21          -3.4427154132      -24.4346114568       19.1805687119  BUTH      97              0.0000000000
     15800       732  BUTH      LPO22          -3.1530945377      -24.0853531061       19.6568241491  BUTH      97              0.0000000000
     15801       733  BUTH      C1              4.4527742070      -16.5199078834      -10.9161505471  BUTH      98              0.0000000000
     15802       733  BUTH      DC1             4.4968668723      -16.5227390549      -10.9025825496  BUTH      98              0.0000000000
     15803       733  BUTH      C2              4.2614114568      -16.1657111902       -9.4430292906  BUTH      98              0.0000000000
     15804       733  BUTH      DC2             4.2464166607      -16.1098632594       -9.4747604594  BUTH      98              0.0000000000
     15805       733  BUTH      C3              5.5474445222      -16.3645646074       -8.6091186837  BUTH      98              0.0000000000
     15806       733  BUTH      DC3             5.5759124165      -16.4016419160       -8.6327290811  BUTH      98              0.0000000000
     15807       733  BUTH      C4              6.1291863969      -17.5887002646       -8.7481460804  BUTH      98              0.0000000000
     15808       733  BUTH      DC4             6.1349942136      -17.5878803016       -8.7511046196  BUTH      98              0.0000000000
     15809       733  BUTH      O1              7.1949878195      -17.5986779252       -9.3821957380  BUTH      98              0.0000000000
     15810       733  BUTH      DO1             7.1909964626      -17.6416259683       -9.3389415192  BUTH      98              0.0000000000
     15811       733  BUTH      O2              6.0778638501      -18.4614866908       -7.8880159103  BUTH      98              0.0000000000
     15812       733  BUTH      DO2             6.0921561850      -18.4531813452       -7.8818477180  BUTH      98              0.0000000000
     15813       733  BUTH      H1              5.2239339037      -15.8790606005      -11.3946361605  BUTH      98              0.0000000000
     15814       733  BUTH      H2              4.7743566398      -17.5770174176      -11.0320175983  BUTH      98              0.0000000000
     15815       733  BUTH      H3              3.4997962411      -16.4042360112      -11.4754125742  BUTH      98              0.0000000000
     15816       733  BUTH      H4              3.4625627721      -16.8095613201       -9.0168617292  BUTH      98              0.0000000000
     15817       733  BUTH      H5              3.9087906235      -15.1174395653       -9.3376435793  BUTH      98              0.0000000000
     15818       733  BUTH      H6              5.2494779504      -16.1569967121       -7.5591413062  BUTH      98              0.0000000000
     15819       733  BUTH      H7              6.2063746763      -15.5123250591       -8.8808166859  BUTH      98              0.0000000000
     15820       733  BUTH      H8              6.8331141689      -18.9660329462       -8.2285009059  BUTH      98              0.0000000000
     15821       733  BUTH      H9              7.6651128402      -18.4458011955       -9.3641505231  BUTH      98              0.0000000000
     15822       733  BUTH      LPO11           7.2758339767      -17.2742055134       -9.4855473364  BUTH      98              0.0000000000
     15823       733  BUTH      LPO12           7.3198920322      -17.9250765000       -9.4012458825  BUTH      98              0.0000000000
     15824       733  BUTH      LPO21           6.2161532592      -18.3155273751       -7.6015339432  BUTH      98              0.0000000000
     15825       733  BUTH      LPO22           5.8101932684      -18.6665148732       -7.9819089563  BUTH      98              0.0000000000
     15826       734  BUTH      C1             20.6741196608        4.4442149612      -23.4438459117  BUTH      99              0.0000000000
     15827       734  BUTH      DC1            20.6576453877        4.4911649464      -23.4402163870  BUTH      99              0.0000000000
     15828       734  BUTH      C2             20.4642422375        5.4972392567      -22.3576233349  BUTH      99              0.0000000000
     15829       734  BUTH      DC2            20.4243398316        5.4401979084      -22.2911153604  BUTH      99              0.0000000000
     15830       734  BUTH      C3             20.3336619109        6.9136727606      -22.9392471813  BUTH      99              0.0000000000
     15831       734  BUTH      DC3            20.3635967504        6.8844881697      -22.9443925573  BUTH      99              0.0000000000
     15832       734  BUTH      C4             21.4555120557        7.3007302060      -23.5968957581  BUTH      99              0.0000000000
     15833       734  BUTH      DC4            21.4388453590        7.2906647226      -23.5785746047  BUTH      99              0.0000000000
     15834       734  BUTH      O1             21.3184791698        7.4940298520      -24.8112869392  BUTH      99              0.0000000000
     15835       734  BUTH      DO1            21.3484135267        7.5125837328      -24.7684027444  BUTH      99              0.0000000000
     15836       734  BUTH      O2             22.3903401015        7.8800334362      -23.0165647307  BUTH      99              0.0000000000
     15837       734  BUTH      DO2            22.3723271235        7.8763638391      -23.0009437923  BUTH      99              0.0000000000
     15838       734  BUTH      H1             19.9479944906        4.5687107605      -24.2754492021  BUTH      99              0.0000000000
     15839       734  BUTH      H2             21.6914714843        4.5221113590      -23.8834462083  BUTH      99              0.0000000000
     15840       734  BUTH      H3             20.5629088629        3.4118873840      -23.0485574948  BUTH      99              0.0000000000
     15841       734  BUTH      H4             21.3185291334        5.4687387528      -21.6479032329  BUTH      99              0.0000000000
     15842       734  BUTH      H5             19.5471122892        5.2790677817      -21.7697501637  BUTH      99              0.0000000000
     15843       734  BUTH      H6             20.1082353526        7.5888471515      -22.0862270123  BUTH      99              0.0000000000
     15844       734  BUTH      H7             19.4010105817        6.9292527789      -23.5427699742  BUTH      99              0.0000000000
     15845       734  BUTH      H8             22.8403046094        8.2319453336      -23.8005226110  BUTH      99              0.0000000000
     15846       734  BUTH      H9             22.1096765045        7.8340977981      -25.2554958648  BUTH      99              0.0000000000
     15847       734  BUTH      LPO11          20.9869237319        7.4332614091      -24.9055110760  BUTH      99              0.0000000000
     15848       734  BUTH      LPO12          21.6235189307        7.5922015135      -24.9520458435  BUTH      99              0.0000000000
     15849       734  BUTH      LPO21          22.2486222105        8.1723566281      -22.8863219156  BUTH      99              0.0000000000
     15850       734  BUTH      LPO22          22.6112613609        7.6248550451      -22.9239483937  BUTH      99              0.0000000000
     15851       735  BUTH      C1              2.0777759000       10.5566976155       -3.1293682937  BUTH      100             0.0000000000
     15852       735  BUTH      DC1             2.2031010230       10.5656915875       -3.1125261969  BUTH      100             0.0000000000
     15853       735  BUTH      C2              3.3457565889        9.7284735946       -3.2102056150  BUTH      100             0.0000000000
     15854       735  BUTH      DC2             3.3926475746        9.6317445305       -3.2115215473  BUTH      100             0.0000000000
     15855       735  BUTH      C3              4.4422087395       10.4439652629       -2.4174031000  BUTH      100             0.0000000000
     15856       735  BUTH      DC3             4.4756794154       10.4866626940       -2.4625316278  BUTH      100             0.0000000000
     15857       735  BUTH      C4              4.7192396684       11.6911497513       -2.8684671479  BUTH      100             0.0000000000
     15858       735  BUTH      DC4             4.7289315569       11.7056280854       -2.8929999014  BUTH      100             0.0000000000
     15859       735  BUTH      O1              4.5882412970       12.6374946660       -2.0817790280  BUTH      100             0.0000000000
     15860       735  BUTH      DO1             4.6727824163       12.6572541295       -2.1519998110  BUTH      100             0.0000000000
     15861       735  BUTH      O2              5.6770605561       11.8841766455       -3.5795149240  BUTH      100             0.0000000000
     15862       735  BUTH      DO2             5.6978264136       11.8663599139       -3.6016647187  BUTH      100             0.0000000000
     15863       735  BUTH      H1              1.7886945837       10.7506997383       -2.0743250863  BUTH      100             0.0000000000
     15864       735  BUTH      H2              2.1700695187       11.5368064746       -3.6443338385  BUTH      100             0.0000000000
     15865       735  BUTH      H3              1.2155855725       10.0267662549       -3.5877585132  BUTH      100             0.0000000000
     15866       735  BUTH      H4              3.6195811232        9.6021291007       -4.2794942548  BUTH      100             0.0000000000
     15867       735  BUTH      H5              3.1349970799        8.7252381616       -2.7819298914  BUTH      100             0.0000000000
     15868       735  BUTH      H6              5.3416249377        9.7925311050       -2.3857007311  BUTH      100             0.0000000000
     15869       735  BUTH      H7              4.0518273661       10.4063518542       -1.3779279363  BUTH      100             0.0000000000
     15870       735  BUTH      H8              5.8300994609       12.7427038516       -3.1547677875  BUTH      100             0.0000000000
     15871       735  BUTH      H9              4.9060013837       13.4945982294       -2.4032802085  BUTH      100             0.0000000000
     15872       735  BUTH      LPO11           4.4807841344       12.5200495267       -1.7700746850  BUTH      100             0.0000000000
     15873       735  BUTH      LPO12           4.6703564015       12.9380132864       -2.2412960127  BUTH      100             0.0000000000
     15874       735  BUTH      LPO21           5.9337961753       11.6878543602       -3.4451855447  BUTH      100             0.0000000000
     15875       735  BUTH      LPO22           5.5452027343       11.9772334315       -3.8900852855  BUTH      100             0.0000000000
     15876       736  BUTH      C1             21.7169655886       16.6496045460       22.6057013979  BUTH      101             0.0000000000
     15877       736  BUTH      DC1            21.7547731367       16.6660288608       22.6013689725  BUTH      101             0.0000000000
     15878       736  BUTH      C2             22.5186880040       16.3914932797       23.8778546214  BUTH      101             0.0000000000
     15879       736  BUTH      DC2            22.4580494628       16.3497267889       23.8878487785  BUTH      101             0.0000000000
     15880       736  BUTH      C3             23.3947843189       17.5976288481       24.2948048059  BUTH      101             0.0000000000
     15881       736  BUTH      DC3            23.3968210421       17.6023097220       24.2412226496  BUTH      101             0.0000000000
     15882       736  BUTH      C4             24.2457943500       18.0745951654       23.3458502752  BUTH      101             0.0000000000
     15883       736  BUTH      DC4            24.2303872747       18.0757548705       23.3301364880  BUTH      101             0.0000000000
     15884       736  BUTH      O1             23.9510164098       19.1511349796       22.8011650108  BUTH      101             0.0000000000
     15885       736  BUTH      DO1            24.0092098271       19.1378693429       22.7943538621  BUTH      101             0.0000000000
     15886       736  BUTH      O2             25.4188187832       17.7784503512       23.3095475425  BUTH      101             0.0000000000
     15887       736  BUTH      DO2            25.3951008920       17.7883767082       23.3015734301  BUTH      101             0.0000000000
     15888       736  BUTH      H1             21.1057044343       17.5722486800       22.7026993458  BUTH      101             0.0000000000
     15889       736  BUTH      H2             22.3820644378       16.7797189406       21.7253408097  BUTH      101             0.0000000000
     15890       736  BUTH      H3             21.0217531429       15.8103489089       22.3897138306  BUTH      101             0.0000000000
     15891       736  BUTH      H4             23.1743189916       15.5056231457       23.7374868393  BUTH      101             0.0000000000
     15892       736  BUTH      H5             21.8271416412       16.1531215833       24.7140744265  BUTH      101             0.0000000000
     15893       736  BUTH      H6             23.9478088120       17.2536690260       25.1949028845  BUTH      101             0.0000000000
     15894       736  BUTH      H7             22.6903582167       18.3622169869       24.6866081297  BUTH      101             0.0000000000
     15895       736  BUTH      H8             25.7701221008       18.5733453596       22.8787019730  BUTH      101             0.0000000000
     15896       736  BUTH      H9             24.6252577419       19.4879520435       22.1921380067  BUTH      101             0.0000000000
     15897       736  BUTH      LPO11          23.6502615547       19.2731582885       22.9321490907  BUTH      101             0.0000000000
     15898       736  BUTH      LPO12          24.1949474822       19.2366342027       22.5651829886  BUTH      101             0.0000000000
     15899       736  BUTH      LPO21          25.5324338116       17.8264790734       23.6370912299  BUTH      101             0.0000000000
     15900       736  BUTH      LPO22          25.4435805746       17.5466918719       23.0484443810  BUTH      101             0.0000000000
     15901       737  BUTH      C1            -18.1768516488        7.2996135137        8.2932997423  BUTH      102             0.0000000000
     15902       737  BUTH      DC1           -18.1521838622        7.2400851389        8.2955347311  BUTH      102             0.0000000000
     15903       737  BUTH      C2            -17.4794400299        6.7274072967        9.5224065740  BUTH      102             0.0000000000
     15904       737  BUTH      DC2           -17.5151166864        6.7553374895        9.5734315601  BUTH      102             0.0000000000
     15905       737  BUTH      C3            -16.1936082577        5.9537191813        9.1572407249  BUTH      102             0.0000000000
     15906       737  BUTH      DC3           -16.2388146459        5.9055312890        9.0980607706  BUTH      102             0.0000000000
     15907       737  BUTH      C4            -16.4090665653        5.0139090665        8.1989538660  BUTH      102             0.0000000000
     15908       737  BUTH      DC4           -16.4223380210        4.9871912129        8.1886333879  BUTH      102             0.0000000000
     15909       737  BUTH      O1            -15.7625071888        5.1102814195        7.1478750216  BUTH      102             0.0000000000
     15910       737  BUTH      DO1           -15.7816950681        5.0030346700        7.1741564301  BUTH      102             0.0000000000
     15911       737  BUTH      O2            -16.5921149973        3.8383343073        8.4372271843  BUTH      102             0.0000000000
     15912       737  BUTH      DO2           -16.5993853240        3.8053980535        8.4351212194  BUTH      102             0.0000000000
     15913       737  BUTH      H1            -17.5024852307        7.9887064156        7.7413016385  BUTH      102             0.0000000000
     15914       737  BUTH      H2            -18.4995263933        6.5030279851        7.5892731045  BUTH      102             0.0000000000
     15915       737  BUTH      H3            -19.0743476661        7.8892722792        8.5781232661  BUTH      102             0.0000000000
     15916       737  BUTH      H4            -18.1782971298        6.0444925576       10.0511288217  BUTH      102             0.0000000000
     15917       737  BUTH      H5            -17.2145874836        7.5516357315       10.2186979052  BUTH      102             0.0000000000
     15918       737  BUTH      H6            -15.8190188226        5.5249210539       10.1112511657  BUTH      102             0.0000000000
     15919       737  BUTH      H7            -15.4316696978        6.7206153788        8.9010360129  BUTH      102             0.0000000000
     15920       737  BUTH      H8            -16.0453840765        3.6235963287        7.6652991431  BUTH      102             0.0000000000
     15921       737  BUTH      H9            -15.8729471819        4.3676776724        6.5352546799  BUTH      102             0.0000000000
     15922       737  BUTH      LPO11         -15.5517103142        5.3893166399        7.1621586988  BUTH      102             0.0000000000
     15923       737  BUTH      LPO12         -15.8482449000        4.8498867853        6.9302889941  BUTH      102             0.0000000000
     15924       737  BUTH      LPO21         -16.3796542192        3.7621595303        8.7047301210  BUTH      102             0.0000000000
     15925       737  BUTH      LPO22         -16.9156057827        3.7683255641        8.3234181881  BUTH      102             0.0000000000
     15926       738  BUTH      C1            -15.0037202851        4.2564762721      -29.2002076990  BUTH      103             0.0000000000
     15927       738  BUTH      DC1           -14.9552847883        4.2504071794      -29.1618549865  BUTH      103             0.0000000000
     15928       738  BUTH      C2            -14.4502706610        5.4618545179      -28.4583179203  BUTH      103             0.0000000000
     15929       738  BUTH      DC2           -14.4853479113        5.5021187728      -28.4661473327  BUTH      103             0.0000000000
     15930       738  BUTH      C3            -13.0079263592        5.1940538879      -28.0115782965  BUTH      103             0.0000000000
     15931       738  BUTH      DC3           -13.0231403898        5.1210531841      -27.9824608409  BUTH      103             0.0000000000
     15932       738  BUTH      C4            -12.8495812426        3.9872349692      -27.4076147531  BUTH      103             0.0000000000
     15933       738  BUTH      DC4           -12.8464441225        3.9722659708      -27.3902071564  BUTH      103             0.0000000000
     15934       738  BUTH      O1            -12.1435051041        3.1377381883      -27.9652622378  BUTH      103             0.0000000000
     15935       738  BUTH      DO1           -12.1321498599        3.1274236724      -27.8785379431  BUTH      103             0.0000000000
     15936       738  BUTH      O2            -12.7750475941        3.8674415149      -26.2326703062  BUTH      103             0.0000000000
     15937       738  BUTH      DO2           -12.7784479188        3.8759435166      -26.2079850219  BUTH      103             0.0000000000
     15938       738  BUTH      H1            -14.3561663389        4.0009627046      -30.0660643289  BUTH      103             0.0000000000
     15939       738  BUTH      H2            -15.0623984180        3.3635453032      -28.5417609179  BUTH      103             0.0000000000
     15940       738  BUTH      H3            -16.0242896912        4.4605856139      -29.5889215598  BUTH      103             0.0000000000
     15941       738  BUTH      H4            -15.0882112560        5.6800493246      -27.5752868769  BUTH      103             0.0000000000
     15942       738  BUTH      H5            -14.4675206272        6.3607864260      -29.1109624369  BUTH      103             0.0000000000
     15943       738  BUTH      H6            -12.7412280781        6.0545849407      -27.3614403614  BUTH      103             0.0000000000
     15944       738  BUTH      H7            -12.3778258851        5.3361001165      -28.9155236829  BUTH      103             0.0000000000
     15945       738  BUTH      H8            -12.2127972085        3.0800208326      -26.3015410037  BUTH      103             0.0000000000
     15946       738  BUTH      H9            -11.9389151125        2.3710346604      -27.4091420747  BUTH      103             0.0000000000
     15947       738  BUTH      LPO11         -12.0172224332        3.2655128145      -28.2656392208  BUTH      103             0.0000000000
     15948       738  BUTH      LPO12         -12.1331750632        2.8456016008      -27.7727797593  BUTH      103             0.0000000000
     15949       738  BUTH      LPO21         -12.5463810474        4.1119235944      -26.1304933852  BUTH      103             0.0000000000
     15950       738  BUTH      LPO22         -13.0818948735        3.7299797238      -26.1354643234  BUTH      103             0.0000000000
     15951       739  BUTH      C1            -15.7251010830      -24.5568359580      -18.9326530216  BUTH      104             0.0000000000
     15952       739  BUTH      DC1           -15.7844878916      -24.5848067496      -18.9856705842  BUTH      104             0.0000000000
     15953       739  BUTH      C2            -16.6182880249      -23.8024217411      -19.9066229473  BUTH      104             0.0000000000
     15954       739  BUTH      DC2           -16.6389750340      -23.7443778116      -19.8935492892  BUTH      104             0.0000000000
     15955       739  BUTH      C3            -17.6924290723      -24.7414506419      -20.4560587485  BUTH      104             0.0000000000
     15956       739  BUTH      DC3           -17.6814070245      -24.7880597627      -20.4734941769  BUTH      104             0.0000000000
     15957       739  BUTH      C4            -17.1406650323      -25.9416108357      -20.7782867101  BUTH      104             0.0000000000
     15958       739  BUTH      DC4           -17.1527205662      -25.9387499536      -20.7931986800  BUTH      104             0.0000000000
     15959       739  BUTH      O1            -17.6755003259      -26.9198431622      -20.2408089190  BUTH      104             0.0000000000
     15960       739  BUTH      DO1           -17.6550973302      -26.9199103098      -20.3057883936  BUTH      104             0.0000000000
     15961       739  BUTH      O2            -16.7419560709      -26.1780785200      -21.9110608015  BUTH      104             0.0000000000
     15962       739  BUTH      DO2           -16.7641706903      -26.1628960519      -21.9259734575  BUTH      104             0.0000000000
     15963       739  BUTH      H1            -16.3238470083      -25.0445360860      -18.1339209626  BUTH      104             0.0000000000
     15964       739  BUTH      H2            -15.1289166528      -25.3504582530      -19.4317008945  BUTH      104             0.0000000000
     15965       739  BUTH      H3            -14.9953794658      -23.8726237378      -18.4492473952  BUTH      104             0.0000000000
     15966       739  BUTH      H4            -15.9891454428      -23.4113749995      -20.7346223781  BUTH      104             0.0000000000
     15967       739  BUTH      H5            -17.0960925288      -22.9231685330      -19.4239867980  BUTH      104             0.0000000000
     15968       739  BUTH      H6            -18.1597229005      -24.1933648586      -21.3019662223  BUTH      104             0.0000000000
     15969       739  BUTH      H7            -18.4867556731      -24.7876203636      -19.6806655526  BUTH      104             0.0000000000
     15970       739  BUTH      H8            -16.7271745483      -27.1425951495      -21.8091334846  BUTH      104             0.0000000000
     15971       739  BUTH      H9            -17.3279554390      -27.7760107996      -20.5326145533  BUTH      104             0.0000000000
     15972       739  BUTH      LPO11         -17.9399070280      -26.8147500871      -20.0369841377  BUTH      104             0.0000000000
     15973       739  BUTH      LPO12         -17.5145503847      -27.2141622460      -20.3406657835  BUTH      104             0.0000000000
     15974       739  BUTH      LPO21         -17.0218845962      -26.1353225649      -22.1167594867  BUTH      104             0.0000000000
     15975       739  BUTH      LPO22         -16.4000840331      -26.1033698074      -21.9045709630  BUTH      104             0.0000000000
     15976       740  BUTH      C1             12.1105412255       -4.8115101214       11.0343276506  BUTH      105             0.0000000000
     15977       740  BUTH      DC1            12.1135325082       -4.8004702333       10.9847166802  BUTH      105             0.0000000000
     15978       740  BUTH      C2             13.0880280343       -4.6039813720        9.8812923884  BUTH      105             0.0000000000
     15979       740  BUTH      DC2            13.1725264410       -4.6379375651        9.9211663058  BUTH      105             0.0000000000
     15980       740  BUTH      C3             12.5345636377       -3.6331605182        8.8213936530  BUTH      105             0.0000000000
     15981       740  BUTH      DC3            12.5336806609       -3.6745083570        8.8326902198  BUTH      105             0.0000000000
     15982       740  BUTH      C4             11.3062642883       -3.9774923610        8.3533108768  BUTH      105             0.0000000000
     15983       740  BUTH      DC4            11.3437237952       -3.9867126917        8.3600709209  BUTH      105             0.0000000000
     15984       740  BUTH      O1             10.4315241134       -3.1339920825        8.5443688579  BUTH      105             0.0000000000
     15985       740  BUTH      DO1            10.4550089901       -3.1884116432        8.4974828169  BUTH      105             0.0000000000
     15986       740  BUTH      O2             11.1696670809       -4.6940727136        7.3558375874  BUTH      105             0.0000000000
     15987       740  BUTH      DO2            11.2005759770       -4.6964695893        7.3542675095  BUTH      105             0.0000000000
     15988       740  BUTH      H1             11.8193847322       -3.8413440457       11.4907558297  BUTH      105             0.0000000000
     15989       740  BUTH      H2             11.1758376531       -5.3037507660       10.6903082025  BUTH      105             0.0000000000
     15990       740  BUTH      H3             12.5536602949       -5.4398140229       11.8363255919  BUTH      105             0.0000000000
     15991       740  BUTH      H4             13.2862505870       -5.5821857202        9.3932912885  BUTH      105             0.0000000000
     15992       740  BUTH      H5             14.0475038538       -4.2051130084       10.2745241017  BUTH      105             0.0000000000
     15993       740  BUTH      H6             13.2817477857       -3.6007923476        7.9998164182  BUTH      105             0.0000000000
     15994       740  BUTH      H7             12.5866093805       -2.6186844599        9.2713387266  BUTH      105             0.0000000000
     15995       740  BUTH      H8             10.2756237698       -4.3970156805        7.1248750861  BUTH      105             0.0000000000
     15996       740  BUTH      H9              9.5714962137       -3.3491391438        8.1531850707  BUTH      105             0.0000000000
     15997       740  BUTH      LPO11          10.5664099052       -2.8572481623        8.7108579740  BUTH      105             0.0000000000
     15998       740  BUTH      LPO12          10.1263889665       -3.2465668214        8.4150650672  BUTH      105             0.0000000000
     15999       740  BUTH      LPO21          11.3585339378       -4.5384430066        7.1056202725  BUTH      105             0.0000000000
     16000       740  BUTH      LPO22          11.1033763656       -5.0137375369        7.4820118390  BUTH      105             0.0000000000
     16001       741  BUTH      C1             -0.0005769235       22.9106903461      -28.4771948240  BUTH      106             0.0000000000
     16002       741  BUTH      DC1             0.0012105877       22.8986635610      -28.4697986337  BUTH      106             0.0000000000
     16003       741  BUTH      C2             -0.2476994215       23.1681484736      -26.9957322593  BUTH      106             0.0000000000
     16004       741  BUTH      DC2            -0.1352021516       23.1725561364      -26.9798664021  BUTH      106             0.0000000000
     16005       741  BUTH      C3             -1.6046687337       22.6081923414      -26.5255657896  BUTH      106             0.0000000000
     16006       741  BUTH      DC3            -1.5596281348       22.6368306209      -26.5469684625  BUTH      106             0.0000000000
     16007       741  BUTH      C4             -2.7184405230       23.0514898297      -27.1674592482  BUTH      106             0.0000000000
     16008       741  BUTH      DC4            -2.6620258826       23.0492525979      -27.1573866890  BUTH      106             0.0000000000
     16009       741  BUTH      O1             -3.1107368643       22.3799861841      -28.1332718497  BUTH      106             0.0000000000
     16010       741  BUTH      DO1            -3.1172701928       22.4188743006      -28.1042321651  BUTH      106             0.0000000000
     16011       741  BUTH      O2             -3.3369349945       24.0569351874      -26.7893734676  BUTH      106             0.0000000000
     16012       741  BUTH      DO2            -3.3030592809       24.0472973257      -26.7827538465  BUTH      106             0.0000000000
     16013       741  BUTH      H1             -0.0925513501       21.8263834896      -28.7011152244  BUTH      106             0.0000000000
     16014       741  BUTH      H2             -0.7633772415       23.4372358048      -29.0897358876  BUTH      106             0.0000000000
     16015       741  BUTH      H3              1.0002502455       23.2678098229      -28.8014349466  BUTH      106             0.0000000000
     16016       741  BUTH      H4             -0.2349400281       24.2646683139      -26.8173998791  BUTH      106             0.0000000000
     16017       741  BUTH      H5              0.5612155218       22.7080138659      -26.3888931045  BUTH      106             0.0000000000
     16018       741  BUTH      H6             -1.6769888314       22.8458141293      -25.4426868990  BUTH      106             0.0000000000
     16019       741  BUTH      H7             -1.5131101035       21.5014035146      -26.5564932871  BUTH      106             0.0000000000
     16020       741  BUTH      H8             -4.1779494027       23.9256837457      -27.2545270167  BUTH      106             0.0000000000
     16021       741  BUTH      H9             -3.9584433753       22.6643642257      -28.5067471509  BUTH      106             0.0000000000
     16022       741  BUTH      LPO11          -2.8993767696       22.1052661536      -28.1818085910  BUTH      106             0.0000000000
     16023       741  BUTH      LPO12          -3.3978397372       22.5250553705      -28.2712097760  BUTH      106             0.0000000000
     16024       741  BUTH      LPO21          -3.4345277821       23.9835858728      -26.4613558982  BUTH      106             0.0000000000
     16025       741  BUTH      LPO22          -3.2021577462       24.3202335823      -26.9764805187  BUTH      106             0.0000000000
     16026       742  BUTH      C1              3.7621775700        0.1657938032      -20.2602923239  BUTH      107             0.0000000000
     16027       742  BUTH      DC1             3.8168948565        0.1487680680      -20.2598662094  BUTH      107             0.0000000000
     16028       742  BUTH      C2              4.8108375093        0.4631568159      -19.1970758506  BUTH      107             0.0000000000
     16029       742  BUTH      DC2             4.8045865348        0.5361751495      -19.1995524843  BUTH      107             0.0000000000
     16030       742  BUTH      C3              6.0946536683       -0.3627003625      -19.3873743033  BUTH      107             0.0000000000
     16031       742  BUTH      DC3             6.0757385837       -0.4009067994      -19.4094780162  BUTH      107             0.0000000000
     16032       742  BUTH      C4              5.9112255216       -1.7116973451      -19.4830300994  BUTH      107             0.0000000000
     16033       742  BUTH      DC4             5.9173656892       -1.7097957912      -19.4913449397  BUTH      107             0.0000000000
     16034       742  BUTH      O1              5.9975233692       -2.1587902608      -20.6318112537  BUTH      107             0.0000000000
     16035       742  BUTH      DO1             6.0069328184       -2.1963052536      -20.5955880025  BUTH      107             0.0000000000
     16036       742  BUTH      O2              6.2968470582       -2.5160945210      -18.6340323824  BUTH      107             0.0000000000
     16037       742  BUTH      DO2             6.3165399616       -2.5077761359      -18.6391977688  BUTH      107             0.0000000000
     16038       742  BUTH      H1              4.1567310582        0.3377301746      -21.2845415271  BUTH      107             0.0000000000
     16039       742  BUTH      H2              3.4085346898       -0.8854670942      -20.1961967657  BUTH      107             0.0000000000
     16040       742  BUTH      H3              2.8713295801        0.8157100992      -20.1249421594  BUTH      107             0.0000000000
     16041       742  BUTH      H4              4.3795099710        0.2285785739      -18.2004562626  BUTH      107             0.0000000000
     16042       742  BUTH      H5              5.0665350984        1.5443193122      -19.2023104439  BUTH      107             0.0000000000
     16043       742  BUTH      H6              6.7687996515       -0.0865370425      -18.5485763444  BUTH      107             0.0000000000
     16044       742  BUTH      H7              6.5762432809        0.0964478065      -20.2770795384  BUTH      107             0.0000000000
     16045       742  BUTH      H8              6.1812847818       -3.3123101269      -19.1758682148  BUTH      107             0.0000000000
     16046       742  BUTH      H9              6.0275544449       -3.1256622657      -20.6885356799  BUTH      107             0.0000000000
     16047       742  BUTH      LPO11           6.0648572115       -1.8990972738      -20.8565904925  BUTH      107             0.0000000000
     16048       742  BUTH      LPO12           5.9469090865       -2.5051041409      -20.6295997320  BUTH      107             0.0000000000
     16049       742  BUTH      LPO21           6.6455500131       -2.4860424095      -18.6322660719  BUTH      107             0.0000000000
     16050       742  BUTH      LPO22           6.0293064235       -2.5474715661      -18.4105654053  BUTH      107             0.0000000000
     16051       743  BUTH      C1             -3.4842281109       -4.7066747282        2.0102712414  BUTH      108             0.0000000000
     16052       743  BUTH      DC1            -3.4690126572       -4.7172591823        2.0033816741  BUTH      108             0.0000000000
     16053       743  BUTH      C2             -3.1895794403       -3.2177886154        2.1434362936  BUTH      108             0.0000000000
     16054       743  BUTH      DC2            -3.2260847950       -3.2370962389        2.0615999618  BUTH      108             0.0000000000
     16055       743  BUTH      C3             -2.0069768890       -2.8972991582        3.0807309373  BUTH      108             0.0000000000
     16056       743  BUTH      DC3            -2.0219976929       -2.9317675480        3.0725759136  BUTH      108             0.0000000000
     16057       743  BUTH      C4             -1.9604104403       -3.5257065634        4.2902694138  BUTH      108             0.0000000000
     16058       743  BUTH      DC4            -1.9588674937       -3.5295120420        4.2537229774  BUTH      108             0.0000000000
     16059       743  BUTH      O1             -1.0010419212       -4.3012373897        4.4172605062  BUTH      108             0.0000000000
     16060       743  BUTH      DO1            -1.0171663649       -4.2660702814        4.4525289979  BUTH      108             0.0000000000
     16061       743  BUTH      O2             -2.3431909747       -2.9704203277        5.3059934295  BUTH      108             0.0000000000
     16062       743  BUTH      DO2            -2.3327225503       -2.9972913022        5.2756941863  BUTH      108             0.0000000000
     16063       743  BUTH      H1             -2.6134929741       -5.2452206269        1.5788669784  BUTH      108             0.0000000000
     16064       743  BUTH      H2             -3.6903907589       -5.1526695323        3.0067182284  BUTH      108             0.0000000000
     16065       743  BUTH      H3             -4.3748536857       -4.8848454773        1.3704569952  BUTH      108             0.0000000000
     16066       743  BUTH      H4             -4.0713462601       -2.6927258855        2.5690151995  BUTH      108             0.0000000000
     16067       743  BUTH      H5             -3.0167039264       -2.7560109845        1.1478477859  BUTH      108             0.0000000000
     16068       743  BUTH      H6             -2.0677814201       -1.7992279257        3.2384121907  BUTH      108             0.0000000000
     16069       743  BUTH      H7             -1.0983005232       -3.0287095789        2.4551435624  BUTH      108             0.0000000000
     16070       743  BUTH      H8             -1.6880748738       -3.2810271179        5.9503895159  BUTH      108             0.0000000000
     16071       743  BUTH      H9             -0.9132053728       -4.6879342083        5.3014049012  BUTH      108             0.0000000000
     16072       743  BUTH      LPO11          -0.8078982410       -4.3015272183        4.1253779360  BUTH      108             0.0000000000
     16073       743  BUTH      LPO12          -1.0089765196       -4.4506662036        4.7336591025  BUTH      108             0.0000000000
     16074       743  BUTH      LPO21          -2.2408946538       -2.6378366676        5.2682631792  BUTH      108             0.0000000000
     16075       743  BUTH      LPO22          -2.6227573204       -3.1551117285        5.4071455169  BUTH      108             0.0000000000
     16076       744  BUTH      C1             -6.9414942976       -1.9408992807      -26.3681162202  BUTH      109             0.0000000000
     16077       744  BUTH      DC1            -6.9133269290       -1.8540414105      -26.4591568387  BUTH      109             0.0000000000
     16078       744  BUTH      C2             -8.0036816395       -1.3699745905      -27.2885703558  BUTH      109             0.0000000000
     16079       744  BUTH      DC2            -8.0592044866       -1.3814975748      -27.2876094799  BUTH      109             0.0000000000
     16080       744  BUTH      C3             -7.4356920223       -1.1246621674      -28.6971338295  BUTH      109             0.0000000000
     16081       744  BUTH      DC3            -7.3493969928       -1.0940754136      -28.6902888450  BUTH      109             0.0000000000
     16082       744  BUTH      C4             -6.2437625676       -0.4695701225      -28.6861071720  BUTH      109             0.0000000000
     16083       744  BUTH      DC4            -6.1900906427       -0.4660288652      -28.6837735900  BUTH      109             0.0000000000
     16084       744  BUTH      O1             -5.2250519374       -1.1450520438      -28.9716896684  BUTH      109             0.0000000000
     16085       744  BUTH      DO1            -5.1843381805       -1.1315577152      -28.9817588943  BUTH      109             0.0000000000
     16086       744  BUTH      O2             -6.1775687160        0.7816182179      -28.8658391361  BUTH      109             0.0000000000
     16087       744  BUTH      DO2            -6.1675504100        0.7812584775      -28.8562085174  BUTH      109             0.0000000000
     16088       744  BUTH      H1             -6.4782819406       -2.8423654386      -26.8232141002  BUTH      109             0.0000000000
     16089       744  BUTH      H2             -6.1237313880       -1.2164707857      -26.1661553828  BUTH      109             0.0000000000
     16090       744  BUTH      H3             -7.3695321772       -2.2509755242      -25.3908970550  BUTH      109             0.0000000000
     16091       744  BUTH      H4             -8.3902956769       -0.4221589086      -26.8567185046  BUTH      109             0.0000000000
     16092       744  BUTH      H5             -8.8597151369       -2.0749985274      -27.3554201864  BUTH      109             0.0000000000
     16093       744  BUTH      H6             -8.2333229909       -0.5805577145      -29.2467302106  BUTH      109             0.0000000000
     16094       744  BUTH      H7             -7.4140296438       -2.1211095687      -29.1879946235  BUTH      109             0.0000000000
     16095       744  BUTH      H8             -5.5223472680        0.8301849344      -29.5794399545  BUTH      109             0.0000000000
     16096       744  BUTH      H9             -4.4209987355       -0.6186889340      -29.0957917437  BUTH      109             0.0000000000
     16097       744  BUTH      LPO11          -5.3161085326       -1.4760990164      -29.0396352231  BUTH      109             0.0000000000
     16098       744  BUTH      LPO12          -4.9396934851       -0.9428418457      -28.9582141544  BUTH      109             0.0000000000
     16099       744  BUTH      LPO21          -6.4676716312        0.8622392427      -29.0442783385  BUTH      109             0.0000000000
     16100       744  BUTH      LPO22          -5.9852873570        0.9007201253      -28.5987387531  BUTH      109             0.0000000000
     16101       745  BUTH      C1             -7.1598500572        8.8506189318       -8.7493186910  BUTH      110             0.0000000000
     16102       745  BUTH      DC1            -7.1350961040        8.8529035455       -8.8061132888  BUTH      110             0.0000000000
     16103       745  BUTH      C2             -7.5379356240        9.6979069180       -9.9503810013  BUTH      110             0.0000000000
     16104       745  BUTH      DC2            -7.6342172210        9.6071704526      -10.0057320388  BUTH      110             0.0000000000
     16105       745  BUTH      C3             -6.3849194653       10.6257937916      -10.3576672433  BUTH      110             0.0000000000
     16106       745  BUTH      DC3            -6.4203856601       10.5765753689      -10.3516532248  BUTH      110             0.0000000000
     16107       745  BUTH      C4             -5.8657012843       11.4455268523       -9.3828684682  BUTH      110             0.0000000000
     16108       745  BUTH      DC4            -5.8581126672       11.3851822866       -9.4508691165  BUTH      110             0.0000000000
     16109       745  BUTH      O1             -4.7227531869       11.0498632226       -9.0846291413  BUTH      110             0.0000000000
     16110       745  BUTH      DO1            -4.7275150161       11.0509515636       -9.1044447300  BUTH      110             0.0000000000
     16111       745  BUTH      O2             -6.0361427737       12.6698892087       -9.4957166442  BUTH      110             0.0000000000
     16112       745  BUTH      DO2            -6.0121446553       12.6304341646       -9.5639168121  BUTH      110             0.0000000000
     16113       745  BUTH      H1             -6.1944754656        8.3225177659       -8.9025572533  BUTH      110             0.0000000000
     16114       745  BUTH      H2             -7.0401017331        9.4907244772       -7.8491819071  BUTH      110             0.0000000000
     16115       745  BUTH      H3             -7.9462443824        8.0967504709       -8.5311735317  BUTH      110             0.0000000000
     16116       745  BUTH      H4             -8.4075788877       10.3338693279       -9.6790999533  BUTH      110             0.0000000000
     16117       745  BUTH      H5             -7.8076558591        9.0570014408      -10.8168751816  BUTH      110             0.0000000000
     16118       745  BUTH      H6             -6.7918891475       11.2140216530      -11.2077758613  BUTH      110             0.0000000000
     16119       745  BUTH      H7             -5.6489890809        9.9523732705      -10.8467810043  BUTH      110             0.0000000000
     16120       745  BUTH      H8             -6.1134322059       12.9350199811       -8.5658607321  BUTH      110             0.0000000000
     16121       745  BUTH      H9             -4.2169625395       11.6677701862       -8.5356958072  BUTH      110             0.0000000000
     16122       745  BUTH      LPO11          -4.6399681541       10.7683304005       -9.2753800481  BUTH      110             0.0000000000
     16123       745  BUTH      LPO12          -4.5858763805       11.2553539209       -8.8365599720  BUTH      110             0.0000000000
     16124       745  BUTH      LPO21          -5.7187061161       12.7973122634       -9.5698606496  BUTH      110             0.0000000000
     16125       745  BUTH      LPO22          -6.3692864302       12.7042086836       -9.5973900320  BUTH      110             0.0000000000
     16126       746  BUTH      C1             -8.1499310629       16.8848630272       24.2912777006  BUTH      111             0.0000000000
     16127       746  BUTH      DC1            -8.0962181699       16.8724141922       24.3371437442  BUTH      111             0.0000000000
     16128       746  BUTH      C2             -7.3015440899       15.6192180206       24.3538321326  BUTH      111             0.0000000000
     16129       746  BUTH      DC2            -7.3137287807       15.5925308634       24.3917238194  BUTH      111             0.0000000000
     16130       746  BUTH      C3             -6.1504710150       15.7165927863       25.3740399516  BUTH      111             0.0000000000
     16131       746  BUTH      DC3            -6.0991752476       15.7623480001       25.3917770684  BUTH      111             0.0000000000
     16132       746  BUTH      C4             -5.3704697643       16.8262909606       25.2335581896  BUTH      111             0.0000000000
     16133       746  BUTH      DC4            -5.3417867415       16.8282694170       25.2480312416  BUTH      111             0.0000000000
     16134       746  BUTH      O1             -5.3606311658       17.5699318656       26.2330647201  BUTH      111             0.0000000000
     16135       746  BUTH      DO1            -5.3071255720       17.5678383633       26.2200925852  BUTH      111             0.0000000000
     16136       746  BUTH      O2             -4.2486591264       16.7683152397       24.6573878326  BUTH      111             0.0000000000
     16137       746  BUTH      DO2            -4.2169776948       16.7434254874       24.6710643017  BUTH      111             0.0000000000
     16138       746  BUTH      H1             -8.6033779062       17.1288447777       25.2757470330  BUTH      111             0.0000000000
     16139       746  BUTH      H2             -7.5602916263       17.7620166731       23.9488630157  BUTH      111             0.0000000000
     16140       746  BUTH      H3             -8.9788204172       16.7527842004       23.5633912918  BUTH      111             0.0000000000
     16141       746  BUTH      H4             -6.8750122257       15.4438300204       23.3430746838  BUTH      111             0.0000000000
     16142       746  BUTH      H5             -7.9447501434       14.7406446794       24.5745488261  BUTH      111             0.0000000000
     16143       746  BUTH      H6             -5.5783023408       14.7741562249       25.2370825224  BUTH      111             0.0000000000
     16144       746  BUTH      H7             -6.6396798911       15.6019989991       26.3649304308  BUTH      111             0.0000000000
     16145       746  BUTH      H8             -4.0093373817       17.6973178220       24.8008427199  BUTH      111             0.0000000000
     16146       746  BUTH      H9             -4.7438225027       18.3149307256       26.1740327561  BUTH      111             0.0000000000
     16147       746  BUTH      LPO11          -5.5645405965       17.4359203550       26.4839867381  BUTH      111             0.0000000000
     16148       746  BUTH      LPO12          -5.1548310403       17.8468497112       26.1742190311  BUTH      111             0.0000000000
     16149       746  BUTH      LPO21          -4.0362013621       16.6091852611       24.8855091781  BUTH      111             0.0000000000
     16150       746  BUTH      LPO22          -4.3209091206       16.7706364153       24.3149341124  BUTH      111             0.0000000000
     16151       747  BUTH      C1             28.4268313782       -4.6742786007       18.3762449879  BUTH      112             0.0000000000
     16152       747  BUTH      DC1            28.4118375720       -4.7042930976       18.4934788094  BUTH      112             0.0000000000
     16153       747  BUTH      C2             27.4644060106       -4.6277215636       19.5492376690  BUTH      112             0.0000000000
     16154       747  BUTH      DC2            27.3584725277       -4.5500249610       19.5978985738  BUTH      112             0.0000000000
     16155       747  BUTH      C3             28.0642449812       -5.3756825121       20.7524602245  BUTH      112             0.0000000000
     16156       747  BUTH      DC3            28.0563769687       -5.4053331590       20.7432802375  BUTH      112             0.0000000000
     16157       747  BUTH      C4             28.4864996627       -6.6426387519       20.4666854230  BUTH      112             0.0000000000
     16158       747  BUTH      DC4            28.4737084862       -6.6352357927       20.4761917322  BUTH      112             0.0000000000
     16159       747  BUTH      O1             29.6782523135       -6.8552507192       20.7208009183  BUTH      112             0.0000000000
     16160       747  BUTH      DO1            29.6172585487       -6.9086495282       20.7368388656  BUTH      112             0.0000000000
     16161       747  BUTH      O2             27.7945801101       -7.6141953584       20.7616379727  BUTH      112             0.0000000000
     16162       747  BUTH      DO2            27.7766146536       -7.6082164240       20.7789335878  BUTH      112             0.0000000000
     16163       747  BUTH      H1             29.4233389984       -4.2554444902       18.6328995238  BUTH      112             0.0000000000
     16164       747  BUTH      H2             28.5758582308       -5.7235682225       18.0429233881  BUTH      112             0.0000000000
     16165       747  BUTH      H3             28.0456395593       -4.1164072442       17.4943190571  BUTH      112             0.0000000000
     16166       747  BUTH      H4             26.5274878664       -5.1215674803       19.2136462471  BUTH      112             0.0000000000
     16167       747  BUTH      H5             27.2713474077       -3.5623875078       19.7984619207  BUTH      112             0.0000000000
     16168       747  BUTH      H6             27.2844722893       -5.3613240277       21.5437056882  BUTH      112             0.0000000000
     16169       747  BUTH      H7             28.8603038045       -4.7057861108       21.1421397868  BUTH      112             0.0000000000
     16170       747  BUTH      H8             28.5587218242       -8.1921304356       20.9132245425  BUTH      112             0.0000000000
     16171       747  BUTH      H9             29.9490040746       -7.7831452199       20.6524907479  BUTH      112             0.0000000000
     16172       747  BUTH      LPO11          29.8261190135       -6.5663184440       20.8517725924  BUTH      112             0.0000000000
     16173       747  BUTH      LPO12          29.7610511045       -7.1853343556       20.6390136747  BUTH      112             0.0000000000
     16174       747  BUTH      LPO21          27.6859522125       -7.5539608440       21.0888562227  BUTH      112             0.0000000000
     16175       747  BUTH      LPO22          27.6731270448       -7.7366283686       20.4570738400  BUTH      112             0.0000000000
     16176       748  BUTH      C1             27.8463446081       10.8457293689        4.1641429163  BUTH      113             0.0000000000
     16177       748  BUTH      DC1            27.7675097132       10.8576423976        4.1770217425  BUTH      113             0.0000000000
     16178       748  BUTH      C2             27.0202354997       12.1226345170        4.0602103231  BUTH      113             0.0000000000
     16179       748  BUTH      DC2            27.0454122792       12.1686137196        4.0512175705  BUTH      113             0.0000000000
     16180       748  BUTH      C3             25.7666531634       12.0771086893        4.9578902928  BUTH      113             0.0000000000
     16181       748  BUTH      DC3            25.7317930674       12.0186607312        4.9509055547  BUTH      113             0.0000000000
     16182       748  BUTH      C4             25.0190437701       10.9537450624        4.7858193813  BUTH      113             0.0000000000
     16183       748  BUTH      DC4            25.0030744078       10.9407736322        4.7795477200  BUTH      113             0.0000000000
     16184       748  BUTH      O1             24.8753414279       10.2307778139        5.7821114114  BUTH      113             0.0000000000
     16185       748  BUTH      DO1            24.7929540681       10.2287167915        5.7280990877  BUTH      113             0.0000000000
     16186       748  BUTH      O2             23.9941739115       10.9324469739        4.1334075321  BUTH      113             0.0000000000
     16187       748  BUTH      DO2            23.9723671916       10.9305671436        4.1298045069  BUTH      113             0.0000000000
     16188       748  BUTH      H1             28.1852323411       10.6676742407        5.2071062312  BUTH      113             0.0000000000
     16189       748  BUTH      H2             27.2781328004        9.9512514355        3.8304281154  BUTH      113             0.0000000000
     16190       748  BUTH      H3             28.7593827574       10.9120652815        3.5346336740  BUTH      113             0.0000000000
     16191       748  BUTH      H4             26.7122004614       12.2694196538        3.0029073680  BUTH      113             0.0000000000
     16192       748  BUTH      H5             27.6483121968       12.9949262329        4.3411868824  BUTH      113             0.0000000000
     16193       748  BUTH      H6             25.2060169591       13.0089441634        4.7305344141  BUTH      113             0.0000000000
     16194       748  BUTH      H7             26.1402958129       12.2302286530        5.9929103158  BUTH      113             0.0000000000
     16195       748  BUTH      H8             23.6193451533       10.2658327936        4.7300891363  BUTH      113             0.0000000000
     16196       748  BUTH      H9             24.2467363952        9.5028256823        5.6642029424  BUTH      113             0.0000000000
     16197       748  BUTH      LPO11          25.0442790244       10.3690150605        6.0556997008  BUTH      113             0.0000000000
     16198       748  BUTH      LPO12          24.6786432929        9.9528771504        5.7009876483  BUTH      113             0.0000000000
     16199       748  BUTH      LPO21          23.8190287978       11.2212053116        4.2252923054  BUTH      113             0.0000000000
     16200       748  BUTH      LPO22          24.0688446213       10.7434327130        3.8484550899  BUTH      113             0.0000000000
     16201       749  BUTH      C1            -16.1731725131       23.3489879273        8.8826716941  BUTH      114             0.0000000000
     16202       749  BUTH      DC1           -16.1418598141       23.3679302692        8.8658121542  BUTH      114             0.0000000000
     16203       749  BUTH      C2            -15.0279392046       22.3962805576        9.2117240164  BUTH      114             0.0000000000
     16204       749  BUTH      DC2           -15.0683043188       22.3796751412        9.2728741954  BUTH      114             0.0000000000
     16205       749  BUTH      C3            -13.6419023954       22.9348620445        8.7984991795  BUTH      114             0.0000000000
     16206       749  BUTH      DC3           -13.6736277959       22.9463385973        8.7667407400  BUTH      114             0.0000000000
     16207       749  BUTH      C4            -13.5865920754       23.3743810356        7.5139415473  BUTH      114             0.0000000000
     16208       749  BUTH      DC4           -13.5965301719       23.3769396004        7.5230316733  BUTH      114             0.0000000000
     16209       749  BUTH      O1            -13.3388712532       24.5812056719        7.3589151079  BUTH      114             0.0000000000
     16210       749  BUTH      DO1           -13.3271700825       24.5451764665        7.3211126296  BUTH      114             0.0000000000
     16211       749  BUTH      O2            -13.3214571429       22.6231307131        6.5743353090  BUTH      114             0.0000000000
     16212       749  BUTH      DO2           -13.3242280453       22.6254488499        6.5856604479  BUTH      114             0.0000000000
     16213       749  BUTH      H1            -16.0305948788       24.3359128311        9.3725409144  BUTH      114             0.0000000000
     16214       749  BUTH      H2            -16.2474323636       23.5191974205        7.7873018008  BUTH      114             0.0000000000
     16215       749  BUTH      H3            -17.1430167628       22.9289751875        9.2251807178  BUTH      114             0.0000000000
     16216       749  BUTH      H4            -15.2031404521       21.4361399588        8.6809175042  BUTH      114             0.0000000000
     16217       749  BUTH      H5            -15.0261322867       22.1746048223       10.3003826432  BUTH      114             0.0000000000
     16218       749  BUTH      H6            -12.9330368272       22.0971260182        8.9717878321  BUTH      114             0.0000000000
     16219       749  BUTH      H7            -13.3485599357       23.6919708508        9.5568246088  BUTH      114             0.0000000000
     16220       749  BUTH      H8            -12.8940100476       23.2751527365        5.9972250396  BUTH      114             0.0000000000
     16221       749  BUTH      H9            -13.2316095030       24.8572387840        6.4362766965  BUTH      114             0.0000000000
     16222       749  BUTH      LPO11         -13.2977048981       24.7359042173        7.6701604955  BUTH      114             0.0000000000
     16223       749  BUTH      LPO12         -13.3322742598       24.6591964302        7.0177788869  BUTH      114             0.0000000000
     16224       749  BUTH      LPO21         -13.0440122713       22.4388499727        6.6818757755  BUTH      114             0.0000000000
     16225       749  BUTH      LPO22         -13.6255475850       22.5770467561        6.4072865978  BUTH      114             0.0000000000
     16226       750  BUTH      C1             28.8808156795       -2.5890004404      -20.4529169168  BUTH      115             0.0000000000
     16227       750  BUTH      DC1            28.8517028819       -2.5164126202      -20.4197174450  BUTH      115             0.0000000000
     16228       750  BUTH      C2             29.3733521449       -1.7159431309      -19.3101891271  BUTH      115             0.0000000000
     16229       750  BUTH      DC2            29.4120455776       -1.7427449255      -19.2710059521  BUTH      115             0.0000000000
     16230       750  BUTH      C3             28.3006972383       -0.7193036282      -18.8178577839  BUTH      115             0.0000000000
     16231       750  BUTH      DC3            28.2530933209       -0.6953859388      -18.8630713366  BUTH      115             0.0000000000
     16232       750  BUTH      C4             27.5512714054       -0.1630828042      -19.8091373742  BUTH      115             0.0000000000
     16233       750  BUTH      DC4            27.5196281389       -0.1616959773      -19.8156501062  BUTH      115             0.0000000000
     16234       750  BUTH      O1             26.3195914610       -0.3227052375      -19.7014923863  BUTH      115             0.0000000000
     16235       750  BUTH      DO1            26.3114849176       -0.2649770408      -19.7220138206  BUTH      115             0.0000000000
     16236       750  BUTH      O2             27.8316307824        0.9293886018      -20.2904807123  BUTH      115             0.0000000000
     16237       750  BUTH      DO2            27.8149067994        0.9287421965      -20.2871823583  BUTH      115             0.0000000000
     16238       750  BUTH      H1             27.9278336048       -3.0967048707      -20.1914166721  BUTH      115             0.0000000000
     16239       750  BUTH      H2             28.6931031074       -2.0057368502      -21.3796793324  BUTH      115             0.0000000000
     16240       750  BUTH      H3             29.6093928760       -3.3890530698      -20.7047344283  BUTH      115             0.0000000000
     16241       750  BUTH      H4             30.2573285501       -1.1441767891      -19.6651397792  BUTH      115             0.0000000000
     16242       750  BUTH      H5             29.7046252716       -2.3502071373      -18.4603136737  BUTH      115             0.0000000000
     16243       750  BUTH      H6             28.8703632763        0.0394407853      -18.2398365722  BUTH      115             0.0000000000
     16244       750  BUTH      H7             27.7265499364       -1.2605536214      -18.0357297121  BUTH      115             0.0000000000
     16245       750  BUTH      H8             26.9189987059        1.2102482341      -20.4611281846  BUTH      115             0.0000000000
     16246       750  BUTH      H9             25.7935130815        0.1479481627      -20.3653356777  BUTH      115             0.0000000000
     16247       750  BUTH      LPO11          26.2475259954       -0.5067356036      -19.4126336094  BUTH      115             0.0000000000
     16248       750  BUTH      LPO12          26.1551151797       -0.1693300504      -19.9696781519  BUTH      115             0.0000000000
     16249       750  BUTH      LPO21          27.9141309096        1.1307551365      -20.0163543770  BUTH      115             0.0000000000
     16250       750  BUTH      LPO22          27.9426439675        0.8596723670      -20.6150045471  BUTH      115             0.0000000000
     16251       751  BUTH      C1              9.4610188257       27.8174110738       16.2086556143  BUTH      116             0.0000000000
     16252       751  BUTH      DC1             9.4701687822       27.7617073370       16.2200713099  BUTH      116             0.0000000000
     16253       751  BUTH      C2              8.4459305187       26.7471310696       15.8339646140  BUTH      116             0.0000000000
     16254       751  BUTH      DC2             8.4241226239       26.7801407236       15.7974181884  BUTH      116             0.0000000000
     16255       751  BUTH      C3              8.1694102729       25.7702632337       16.9908864745  BUTH      116             0.0000000000
     16256       751  BUTH      DC3             8.2161819741       25.7613064150       17.0136771329  BUTH      116             0.0000000000
     16257       751  BUTH      C4              9.2766302532       25.1428741134       17.4496093902  BUTH      116             0.0000000000
     16258       751  BUTH      DC4             9.2812239021       25.1464831079       17.4545365135  BUTH      116             0.0000000000
     16259       751  BUTH      O1              9.6329039859       25.5571570798       18.5642839371  BUTH      116             0.0000000000
     16260       751  BUTH      DO1             9.6443190187       25.5138912759       18.5645973957  BUTH      116             0.0000000000
     16261       751  BUTH      O2              9.5396362140       23.9438262016       17.1557935818  BUTH      116             0.0000000000
     16262       751  BUTH      DO2             9.5265657945       23.9474293331       17.1557566195  BUTH      116             0.0000000000
     16263       751  BUTH      H1              9.1455195524       28.3623049936       17.1240090023  BUTH      116             0.0000000000
     16264       751  BUTH      H2             10.4661900699       27.3856773628       16.4024538951  BUTH      116             0.0000000000
     16265       751  BUTH      H3              9.5657967550       28.5659673073       15.3944037179  BUTH      116             0.0000000000
     16266       751  BUTH      H4              8.8291380877       26.1870119653       14.9543399498  BUTH      116             0.0000000000
     16267       751  BUTH      H5              7.4870650191       27.2210322798       15.5334390798  BUTH      116             0.0000000000
     16268       751  BUTH      H6              7.4037649599       25.0427103240       16.6462489545  BUTH      116             0.0000000000
     16269       751  BUTH      H7              7.6182121573       26.3694160707       17.7468742490  BUTH      116             0.0000000000
     16270       751  BUTH      H8             10.0901889217       23.7059674208       17.9181681068  BUTH      116             0.0000000000
     16271       751  BUTH      H9             10.3654887683       25.0610909259       18.9595040119  BUTH      116             0.0000000000
     16272       751  BUTH      LPO11           9.4149623438       25.8080837058       18.6739984257  BUTH      116             0.0000000000
     16273       751  BUTH      LPO12           9.9195562147       25.3861286418       18.6695444384  BUTH      116             0.0000000000
     16274       751  BUTH      LPO21           9.2478555508       23.7661192294       17.2318480139  BUTH      116             0.0000000000
     16275       751  BUTH      LPO22           9.7841589491       23.9635630093       16.9061556631  BUTH      116             0.0000000000
     16276       752  BUTH      C1              8.9466241798       -6.8329383028      -27.0851475579  BUTH      117             0.0000000000
     16277       752  BUTH      DC1             8.9659721083       -6.7793828967      -27.0492238143  BUTH      117             0.0000000000
     16278       752  BUTH      C2              9.9883820910       -6.3177078178      -26.0983891112  BUTH      117             0.0000000000
     16279       752  BUTH      DC2            10.0110640207       -6.3788298761      -26.0603901005  BUTH      117             0.0000000000
     16280       752  BUTH      C3              9.6506525649       -4.9166151172      -25.5539042665  BUTH      117             0.0000000000
     16281       752  BUTH      DC3             9.6332860993       -4.8959499366      -25.5807552806  BUTH      117             0.0000000000
     16282       752  BUTH      C4              9.3332988574       -4.0136112191      -26.5238843240  BUTH      117             0.0000000000
     16283       752  BUTH      DC4             9.3307170974       -4.0192948284      -26.5124828921  BUTH      117             0.0000000000
     16284       752  BUTH      O1              8.1966675355       -3.5292928387      -26.4112985725  BUTH      117             0.0000000000
     16285       752  BUTH      DO1             8.2452471354       -3.4882885717      -26.4233338051  BUTH      117             0.0000000000
     16286       752  BUTH      O2             10.1624470355       -3.2111654427      -26.9358140460  BUTH      117             0.0000000000
     16287       752  BUTH      DO2            10.1559436653       -3.2176167667      -26.9278040927  BUTH      117             0.0000000000
     16288       752  BUTH      H1              7.9400986491       -6.8946248595      -26.6188621028  BUTH      117             0.0000000000
     16289       752  BUTH      H2              8.8620131970       -6.1769274606      -27.9777906874  BUTH      117             0.0000000000
     16290       752  BUTH      H3              9.2079412095       -7.8487145254      -27.4515258841  BUTH      117             0.0000000000
     16291       752  BUTH      H4             10.9757663344       -6.2744640786      -26.6058566824  BUTH      117             0.0000000000
     16292       752  BUTH      H5             10.0838239699       -7.0203632332      -25.2431188528  BUTH      117             0.0000000000
     16293       752  BUTH      H6             10.5446046305       -4.6106777899      -24.9694617487  BUTH      117             0.0000000000
     16294       752  BUTH      H7              8.8634304781       -5.0764218632      -24.7863990939  BUTH      117             0.0000000000
     16295       752  BUTH      H8              9.5415734173       -2.4825769328      -27.0925773503  BUTH      117             0.0000000000
     16296       752  BUTH      H9              7.9977817343       -2.8186511414      -27.0393063885  BUTH      117             0.0000000000
     16297       752  BUTH      LPO11           8.0364271585       -3.6639260625      -26.1307688653  BUTH      117             0.0000000000
     16298       752  BUTH      LPO12           8.1375638091       -3.3011971360      -26.6701017795  BUTH      117             0.0000000000
     16299       752  BUTH      LPO21          10.3287518655       -3.0977280894      -26.6495018556  BUTH      117             0.0000000000
     16300       752  BUTH      LPO22          10.2316371567       -3.3126077946      -27.2635672708  BUTH      117             0.0000000000
     16301       753  BUTH      C1              4.6991611603      -18.1511635432       17.4971995181  BUTH      118             0.0000000000
     16302       753  BUTH      DC1             4.7383211794      -18.1561115200       17.4653499304  BUTH      118             0.0000000000
     16303       753  BUTH      C2              3.5520892032      -17.9005785801       18.4778581879  BUTH      118             0.0000000000
     16304       753  BUTH      DC2             3.6361334369      -17.7952138185       18.4628758921  BUTH      118             0.0000000000
     16305       753  BUTH      C3              2.8726606702      -19.1567788780       19.0900721840  BUTH      118             0.0000000000
     16306       753  BUTH      DC3             2.9265262858      -19.0882207492       19.0287611567  BUTH      118             0.0000000000
     16307       753  BUTH      C4              2.2362142092      -20.1064710620       18.3464093563  BUTH      118             0.0000000000
     16308       753  BUTH      DC4             2.2898446855      -20.0446304176       18.3269476100  BUTH      118             0.0000000000
     16309       753  BUTH      O1              3.0588384077      -20.9107043286       17.8766473634  BUTH      118             0.0000000000
     16310       753  BUTH      DO1             3.0443872869      -20.8886473114       17.8441286188  BUTH      118             0.0000000000
     16311       753  BUTH      O2              1.2920950371      -19.7596976348       17.5700233888  BUTH      118             0.0000000000
     16312       753  BUTH      DO2             1.3158238220      -19.7377811515       17.5649616198  BUTH      118             0.0000000000
     16313       753  BUTH      H1              5.4376269770      -18.8573199178       17.9334705497  BUTH      118             0.0000000000
     16314       753  BUTH      H2              4.2966292300      -18.6045181320       16.5662007739  BUTH      118             0.0000000000
     16315       753  BUTH      H3              5.2201910726      -17.2072111948       17.2292390843  BUTH      118             0.0000000000
     16316       753  BUTH      H4              2.7668327668      -17.2963650227       17.9752457067  BUTH      118             0.0000000000
     16317       753  BUTH      H5              3.9393635346      -17.3019250657       19.3298872734  BUTH      118             0.0000000000
     16318       753  BUTH      H6              2.1179822281      -18.7607596658       19.8027784591  BUTH      118             0.0000000000
     16319       753  BUTH      H7              3.6417398917      -19.6101613555       19.7513455617  BUTH      118             0.0000000000
     16320       753  BUTH      H8              1.0050324258      -20.6279895385       17.2466594649  BUTH      118             0.0000000000
     16321       753  BUTH      H9              2.6815580126      -21.5662840321       17.2709776878  BUTH      118             0.0000000000
     16322       753  BUTH      LPO11           3.3825771810      -20.8228780506       17.9765460699  BUTH      118             0.0000000000
     16323       753  BUTH      LPO12           2.8935898725      -21.1534775705       17.6862423354  BUTH      118             0.0000000000
     16324       753  BUTH      LPO21           1.0247141051      -19.6820008382       17.7820862214  BUTH      118             0.0000000000
     16325       753  BUTH      LPO22           1.4512657691      -19.6372861451       17.2833526626  BUTH      118             0.0000000000
     16326       754  BUTH      C1            -22.5340787692      -26.7898510967       13.8172635571  BUTH      119             0.0000000000
     16327       754  BUTH      DC1           -22.5260720265      -26.7502921286       13.8098613013  BUTH      119             0.0000000000
     16328       754  BUTH      C2            -21.6051111061      -26.7220936406       12.6095897671  BUTH      119             0.0000000000
     16329       754  BUTH      DC2           -21.6321952227      -26.7887040130       12.5896616693  BUTH      119             0.0000000000
     16330       754  BUTH      C3            -20.5108762286      -25.6433554485       12.7627866960  BUTH      119             0.0000000000
     16331       754  BUTH      DC3           -20.5711692305      -25.6175639366       12.7731998709  BUTH      119             0.0000000000
     16332       754  BUTH      C4            -20.9489887800      -24.4019229800       13.1007181452  BUTH      119             0.0000000000
     16333       754  BUTH      DC4           -20.9607929831      -24.4030869082       13.0938488547  BUTH      119             0.0000000000
     16334       754  BUTH      O1            -20.6783643804      -23.9800300369       14.2319847133  BUTH      119             0.0000000000
     16335       754  BUTH      DO1           -20.7006204678      -23.9393519473       14.1773193011  BUTH      119             0.0000000000
     16336       754  BUTH      O2            -21.2575613202      -23.5428827378       12.2819216352  BUTH      119             0.0000000000
     16337       754  BUTH      DO2           -21.2649010681      -23.5484930617       12.2736893658  BUTH      119             0.0000000000
     16338       754  BUTH      H1            -21.9560838227      -26.9684514545       14.7491137350  BUTH      119             0.0000000000
     16339       754  BUTH      H2            -23.0947642251      -25.8398204495       13.9491521043  BUTH      119             0.0000000000
     16340       754  BUTH      H3            -23.2679262413      -27.6173260509       13.7120300749  BUTH      119             0.0000000000
     16341       754  BUTH      H4            -22.2059090176      -26.5132160410       11.6986929465  BUTH      119             0.0000000000
     16342       754  BUTH      H5            -21.1146359670      -27.7067714513       12.4541396214  BUTH      119             0.0000000000
     16343       754  BUTH      H6            -19.9448409006      -25.6408293502       11.8067957823  BUTH      119             0.0000000000
     16344       754  BUTH      H7            -19.7925070353      -26.0645260775       13.4982335021  BUTH      119             0.0000000000
     16345       754  BUTH      H8            -21.1011158601      -22.7919964336       12.8757183817  BUTH      119             0.0000000000
     16346       754  BUTH      H9            -20.9373999928      -23.0601806059       14.3924171812  BUTH      119             0.0000000000
     16347       754  BUTH      LPO11         -20.4940785958      -24.2197669204       14.4082373056  BUTH      119             0.0000000000
     16348       754  BUTH      LPO12         -20.8102865344      -23.6586602841       14.2746230444  BUTH      119             0.0000000000
     16349       754  BUTH      LPO21         -20.9824854799      -23.5188888306       12.0668458939  BUTH      119             0.0000000000
     16350       754  BUTH      LPO22         -21.6073017566      -23.5495111449       12.2701874363  BUTH      119             0.0000000000
     16351       755  BUTH      C1             19.4274086562       14.5368307821       -4.4839549971  BUTH      120             0.0000000000
     16352       755  BUTH      DC1            19.4167329087       14.5239886854       -4.4775072829  BUTH      120             0.0000000000
     16353       755  BUTH      C2             18.5545353671       13.3617357859       -4.0561344098  BUTH      120             0.0000000000
     16354       755  BUTH      DC2            18.4851484934       13.4074947215       -4.1159177085  BUTH      120             0.0000000000
     16355       755  BUTH      C3             18.9212704358       12.7817496406       -2.6674508999  BUTH      120             0.0000000000
     16356       755  BUTH      DC3            18.9573785658       12.8215978021       -2.6978177532  BUTH      120             0.0000000000
     16357       755  BUTH      C4             20.2207149722       12.4530732229       -2.4190039989  BUTH      120             0.0000000000
     16358       755  BUTH      DC4            20.2097250327       12.4607088439       -2.4403460841  BUTH      120             0.0000000000
     16359       755  BUTH      O1             20.9382290598       13.4035574236       -2.1480426538  BUTH      120             0.0000000000
     16360       755  BUTH      DO1            20.9583127884       13.3329180616       -2.1220152481  BUTH      120             0.0000000000
     16361       755  BUTH      O2             20.6051935436       11.4752616681       -1.8454887025  BUTH      120             0.0000000000
     16362       755  BUTH      DO2            20.5972145775       11.4766063730       -1.8564289318  BUTH      120             0.0000000000
     16363       755  BUTH      H1             19.3366305867       15.3839623180       -3.7708992462  BUTH      120             0.0000000000
     16364       755  BUTH      H2             20.4950265934       14.2304591150       -4.5094371832  BUTH      120             0.0000000000
     16365       755  BUTH      H3             19.1831161967       14.8971285896       -5.5061231273  BUTH      120             0.0000000000
     16366       755  BUTH      H4             18.6746085157       12.5577392619       -4.8134276347  BUTH      120             0.0000000000
     16367       755  BUTH      H5             17.4790316677       13.6401687949       -4.0467614180  BUTH      120             0.0000000000
     16368       755  BUTH      H6             18.2435842094       11.9178250618       -2.4980498910  BUTH      120             0.0000000000
     16369       755  BUTH      H7             18.5542348586       13.5467438425       -1.9502411982  BUTH      120             0.0000000000
     16370       755  BUTH      H8             21.3721233220       11.9240704874       -1.4565293747  BUTH      120             0.0000000000
     16371       755  BUTH      H9             21.7873971432       13.1661756082       -1.7461416215  BUTH      120             0.0000000000
     16372       755  BUTH      LPO11          20.7519184067       13.6997838824       -2.1542253458  BUTH      120             0.0000000000
     16373       755  BUTH      LPO12          21.2651911762       13.2936506429       -2.0887444755  BUTH      120             0.0000000000
     16374       755  BUTH      LPO21          20.3933746776       11.4429503226       -1.5687419862  BUTH      120             0.0000000000
     16375       755  BUTH      LPO22          20.7554972037       11.2781088512       -2.0925505905  BUTH      120             0.0000000000
     16376       756  BUTH      C1              3.8072157699       10.0124793509       26.2244598744  BUTH      121             0.0000000000
     16377       756  BUTH      DC1             3.7873131795        9.9779047481       26.2244996101  BUTH      121             0.0000000000
     16378       756  BUTH      C2              4.1647199508        8.9492380543       25.1987177751  BUTH      121             0.0000000000
     16379       756  BUTH      DC2             4.2201556779        8.9800706640       25.1970403146  BUTH      121             0.0000000000
     16380       756  BUTH      C3              2.9184900968        8.2786001836       24.5856973935  BUTH      121             0.0000000000
     16381       756  BUTH      DC3             2.8986180168        8.2722581329       24.6436373777  BUTH      121             0.0000000000
     16382       756  BUTH      C4              2.0122617761        7.8557926702       25.5075367993  BUTH      121             0.0000000000
     16383       756  BUTH      DC4             2.0190085684        7.8470689541       25.5165432969  BUTH      121             0.0000000000
     16384       756  BUTH      O1              0.9044891029        8.4043443271       25.4792111146  BUTH      121             0.0000000000
     16385       756  BUTH      DO1             0.9153615706        8.3282165302       25.5001585113  BUTH      121             0.0000000000
     16386       756  BUTH      O2              1.9662391695        6.7031636065       25.9248885716  BUTH      121             0.0000000000
     16387       756  BUTH      DO2             1.9759593443        6.6908929196       25.9281107919  BUTH      121             0.0000000000
     16388       756  BUTH      H1              3.1149504185       10.7678956337       25.7949998373  BUTH      121             0.0000000000
     16389       756  BUTH      H2              3.3119342312        9.5753459529       27.1177300406  BUTH      121             0.0000000000
     16390       756  BUTH      H3              4.7237068219       10.5431367659       26.5602691369  BUTH      121             0.0000000000
     16391       756  BUTH      H4              4.7965666162        8.1812051899       25.6939109821  BUTH      121             0.0000000000
     16392       756  BUTH      H5              4.7777403100        9.3891699303       24.3832504344  BUTH      121             0.0000000000
     16393       756  BUTH      H6              3.3021965377        7.4544427733       23.9470621845  BUTH      121             0.0000000000
     16394       756  BUTH      H7              2.5147709077        9.0123118387       23.8556295712  BUTH      121             0.0000000000
     16395       756  BUTH      H8              1.0097375001        6.7370526713       26.0825467068  BUTH      121             0.0000000000
     16396       756  BUTH      H9              0.2533029666        8.0322684326       26.0927884486  BUTH      121             0.0000000000
     16397       756  BUTH      LPO11           0.8959394779        8.6437299605       25.2240221211  BUTH      121             0.0000000000
     16398       756  BUTH      LPO12           0.6985448648        8.2711726913       25.7289155122  BUTH      121             0.0000000000
     16399       756  BUTH      LPO21           1.9838067627        6.5010709656       25.6396694556  BUTH      121             0.0000000000
     16400       756  BUTH      LPO22           2.0922720936        6.7181189218       26.2510664994  BUTH      121             0.0000000000
     16401       757  BUTH      C1            -25.9361156551        8.0649326158      -22.7778404846  BUTH      122             0.0000000000
     16402       757  BUTH      DC1           -25.9710760180        8.0579593371      -22.7574060439  BUTH      122             0.0000000000
     16403       757  BUTH      C2            -27.4409387638        8.2244169191      -22.9827569532  BUTH      122             0.0000000000
     16404       757  BUTH      DC2           -27.4327551423        8.2951568162      -23.0129345352  BUTH      122             0.0000000000
     16405       757  BUTH      C3            -28.2821831097        7.5839287459      -21.8519702522  BUTH      122             0.0000000000
     16406       757  BUTH      DC3           -28.2609710223        7.5748892929      -21.8549353130  BUTH      122             0.0000000000
     16407       757  BUTH      C4            -27.9912109707        6.2841033957      -21.5389750239  BUTH      122             0.0000000000
     16408       757  BUTH      DC4           -27.9991360346        6.3127677573      -21.5475030094  BUTH      122             0.0000000000
     16409       757  BUTH      O1            -27.4890288673        6.1472332091      -20.4155538450  BUTH      122             0.0000000000
     16410       757  BUTH      DO1           -27.5233669208        6.1287769088      -20.4446990292  BUTH      122             0.0000000000
     16411       757  BUTH      O2            -28.6933140652        5.3320560101      -21.9472644609  BUTH      122             0.0000000000
     16412       757  BUTH      DO2           -28.7111419233        5.3587405904      -21.9526780410  BUTH      122             0.0000000000
     16413       757  BUTH      H1            -25.6014701189        8.5250587770      -21.8235777944  BUTH      122             0.0000000000
     16414       757  BUTH      H2            -25.6469531025        6.9924720856      -22.7547227477  BUTH      122             0.0000000000
     16415       757  BUTH      H3            -25.3631464652        8.5444075163      -23.6001124148  BUTH      122             0.0000000000
     16416       757  BUTH      H4            -27.7201161210        7.7409945764      -23.9433212895  BUTH      122             0.0000000000
     16417       757  BUTH      H5            -27.7025464998        9.3004819016      -23.0720124621  BUTH      122             0.0000000000
     16418       757  BUTH      H6            -29.3389952037        7.6951385874      -22.1761639737  BUTH      122             0.0000000000
     16419       757  BUTH      H7            -28.1928214067        8.2889965528      -20.9980294603  BUTH      122             0.0000000000
     16420       757  BUTH      H8            -28.3773162751        4.6472043004      -21.3373271421  BUTH      122             0.0000000000
     16421       757  BUTH      H9            -27.3662976246        5.2267350635      -20.1388207485  BUTH      122             0.0000000000
     16422       757  BUTH      LPO11         -27.4587304146        6.4588965497      -20.2591953917  BUTH      122             0.0000000000
     16423       757  BUTH      LPO12         -27.4222225595        5.8091038782      -20.3546812502  BUTH      122             0.0000000000
     16424       757  BUTH      LPO21         -29.0122679777        5.3922052551      -21.8163046577  BUTH      122             0.0000000000
     16425       757  BUTH      LPO22         -28.5407996464        5.2282255212      -22.2446843352  BUTH      122             0.0000000000
     16426       758  BUTH      C1             -5.6933483196      -14.0332719183      -18.0580993891  BUTH      123             0.0000000000
     16427       758  BUTH      DC1            -5.7071914901      -14.0339893559      -18.0097034554  BUTH      123             0.0000000000
     16428       758  BUTH      C2             -5.3922900096      -14.1445206475      -19.5484688160  BUTH      123             0.0000000000
     16429       758  BUTH      DC2            -5.3154401521      -14.0921533963      -19.4881339646  BUTH      123             0.0000000000
     16430       758  BUTH      C3             -6.6251056608      -14.3437610684      -20.4605805510  BUTH      123             0.0000000000
     16431       758  BUTH      DC3            -6.5893052638      -14.3563136363      -20.3801389564  BUTH      123             0.0000000000
     16432       758  BUTH      C4             -7.5043602036      -15.3699611671      -20.2833505232  BUTH      123             0.0000000000
     16433       758  BUTH      DC4            -7.4766258789      -15.3386986467      -20.2448195574  BUTH      123             0.0000000000
     16434       758  BUTH      O1             -8.3261336371      -15.1338563712      -19.3754626393  BUTH      123             0.0000000000
     16435       758  BUTH      DO1            -8.3243480841      -15.1511532342      -19.3670156809  BUTH      123             0.0000000000
     16436       758  BUTH      O2             -7.1789444510      -16.5674589954      -20.5388706854  BUTH      123             0.0000000000
     16437       758  BUTH      DO2            -7.1612681188      -16.5429059542      -20.5155051151  BUTH      123             0.0000000000
     16438       758  BUTH      H1             -6.4438022724      -13.2350650175      -17.8736932920  BUTH      123             0.0000000000
     16439       758  BUTH      H2             -6.1151435449      -14.9912945341      -17.6858058793  BUTH      123             0.0000000000
     16440       758  BUTH      H3             -4.7684404029      -13.7978643596      -17.4893730693  BUTH      123             0.0000000000
     16441       758  BUTH      H4             -4.6880874022      -14.9850648726      -19.7270887854  BUTH      123             0.0000000000
     16442       758  BUTH      H5             -4.8858296747      -13.2141305260      -19.8834212776  BUTH      123             0.0000000000
     16443       758  BUTH      H6             -6.2135329533      -14.4125042194      -21.4902422846  BUTH      123             0.0000000000
     16444       758  BUTH      H7             -7.1450600979      -13.3619430525      -20.4619099801  BUTH      123             0.0000000000
     16445       758  BUTH      H8             -8.0417651510      -17.0079320032      -20.5881045059  BUTH      123             0.0000000000
     16446       758  BUTH      H9             -8.9392026202      -15.8616717215      -19.1927272083  BUTH      123             0.0000000000
     16447       758  BUTH      LPO11          -8.2641830480      -14.8184454638      -19.2369776800  BUTH      123             0.0000000000
     16448       758  BUTH      LPO12          -8.5458425553      -15.4039415276      -19.3396576182  BUTH      123             0.0000000000
     16449       758  BUTH      LPO21          -7.0937236074      -16.5663543787      -20.8783352456  BUTH      123             0.0000000000
     16450       758  BUTH      LPO22          -7.0643783135      -16.6958477929      -20.2340905731  BUTH      123             0.0000000000
     16451       759  BUTH      C1            -24.5034158890      -17.6436964569      -10.1344525106  BUTH      124             0.0000000000
     16452       759  BUTH      DC1           -24.4887568642      -17.5943904652      -10.1529788725  BUTH      124             0.0000000000
     16453       759  BUTH      C2            -25.1797788916      -16.7053297201      -11.1300666195  BUTH      124             0.0000000000
     16454       759  BUTH      DC2           -25.2448370209      -16.7312383639      -11.1302669350  BUTH      124             0.0000000000
     16455       759  BUTH      C3            -24.1669483150      -15.8726216656      -11.9462122648  BUTH      124             0.0000000000
     16456       759  BUTH      DC3           -24.1449892978      -15.8640584968      -11.8934735848  BUTH      124             0.0000000000
     16457       759  BUTH      C4            -23.2132300512      -15.2362159456      -11.2123668931  BUTH      124             0.0000000000
     16458       759  BUTH      DC4           -23.2260213300      -15.2288135104      -11.1967697422  BUTH      124             0.0000000000
     16459       759  BUTH      O1            -22.0578590816      -15.6625142397      -11.3277663694  BUTH      124             0.0000000000
     16460       759  BUTH      DO1           -22.0799190358      -15.5949199600      -11.3145020864  BUTH      124             0.0000000000
     16461       759  BUTH      O2            -23.2864597293      -14.0400519812      -10.8948486451  BUTH      124             0.0000000000
     16462       759  BUTH      DO2           -23.3060104280      -14.0251836519      -10.8807558552  BUTH      124             0.0000000000
     16463       759  BUTH      H1            -23.8245999056      -18.3549424587      -10.6518102064  BUTH      124             0.0000000000
     16464       759  BUTH      H2            -23.8928488448      -17.0860215363       -9.3924770604  BUTH      124             0.0000000000
     16465       759  BUTH      H3            -25.2515733063      -18.2463299459       -9.5764073894  BUTH      124             0.0000000000
     16466       759  BUTH      H4            -25.8558182195      -16.0161693167      -10.5802032133  BUTH      124             0.0000000000
     16467       759  BUTH      H5            -25.8057606477      -17.2970737615      -11.8317124225  BUTH      124             0.0000000000
     16468       759  BUTH      H6            -24.7661565302      -15.1705077912      -12.5645217527  BUTH      124             0.0000000000
     16469       759  BUTH      H7            -23.7504952366      -16.5794234406      -12.6954245741  BUTH      124             0.0000000000
     16470       759  BUTH      H8            -22.3290439872      -13.8983565115      -10.9594821555  BUTH      124             0.0000000000
     16471       759  BUTH      H9            -21.3831402179      -15.1309932288      -10.8792121699  BUTH      124             0.0000000000
     16472       759  BUTH      LPO11         -22.0512563067      -15.9312863171      -11.5518600413  BUTH      124             0.0000000000
     16473       759  BUTH      LPO12         -21.8408290639      -15.4762561605      -11.1260093389  BUTH      124             0.0000000000
     16474       759  BUTH      LPO21         -23.4009779507      -13.8751595671      -11.1815472128  BUTH      124             0.0000000000
     16475       759  BUTH      LPO22         -23.3339354400      -14.0392060197      -10.5480845448  BUTH      124             0.0000000000
     16476       760  BUTH      C1             16.9207305330        5.9230600105       13.3313132592  BUTH      125             0.0000000000
     16477       760  BUTH      DC1            16.9124953007        5.9810216550       13.2816774873  BUTH      125             0.0000000000
     16478       760  BUTH      C2             16.0601775292        6.9273340124       12.5806321367  BUTH      125             0.0000000000
     16479       760  BUTH      DC2            15.9989719944        6.9123668724       12.5619197075  BUTH      125             0.0000000000
     16480       760  BUTH      C3             16.9088204734        7.7172351611       11.5741052880  BUTH      125             0.0000000000
     16481       760  BUTH      DC3            16.9502263373        7.7242261272       11.5623203360  BUTH      125             0.0000000000
     16482       760  BUTH      C4             18.0014299572        8.3475464970       12.0911613114  BUTH      125             0.0000000000
     16483       760  BUTH      DC4            17.9962063353        8.3413235170       12.0737198819  BUTH      125             0.0000000000
     16484       760  BUTH      O1             19.0750403837        7.8017773778       11.7993876241  BUTH      125             0.0000000000
     16485       760  BUTH      DO1            19.0651193472        7.8694659909       11.7759095484  BUTH      125             0.0000000000
     16486       760  BUTH      O2             18.0822999803        9.5726422506       12.0708272504  BUTH      125             0.0000000000
     16487       760  BUTH      DO2            18.0797569905        9.5556059890       12.0459122386  BUTH      125             0.0000000000
     16488       760  BUTH      H1             17.4121150461        5.2200057810       12.6252133997  BUTH      125             0.0000000000
     16489       760  BUTH      H2             17.7340151738        6.4029492524       13.9166297625  BUTH      125             0.0000000000
     16490       760  BUTH      H3             16.3174927495        5.3307113491       14.0521102071  BUTH      125             0.0000000000
     16491       760  BUTH      H4             15.5763856069        7.6272260872       13.2950672009  BUTH      125             0.0000000000
     16492       760  BUTH      H5             15.2537976796        6.3908667750       12.0363202397  BUTH      125             0.0000000000
     16493       760  BUTH      H6             16.2134109617        8.4152522318       11.0607839652  BUTH      125             0.0000000000
     16494       760  BUTH      H7             17.1528809725        6.9381128863       10.8206307007  BUTH      125             0.0000000000
     16495       760  BUTH      H8             19.0366799668        9.6441832120       12.2287536006  BUTH      125             0.0000000000
     16496       760  BUTH      H9             19.8647032753        8.3048926584       12.0489242590  BUTH      125             0.0000000000
     16497       760  BUTH      LPO11          19.0158343732        7.5195344300       11.6010607053  BUTH      125             0.0000000000
     16498       760  BUTH      LPO12          19.3416672496        7.9785780770       11.9413440509  BUTH      125             0.0000000000
     16499       760  BUTH      LPO21          18.0649046557        9.6583913445       11.7319401075  BUTH      125             0.0000000000
     16500       760  BUTH      LPO22          17.9562492671        9.6763275891       12.3804408294  BUTH      125             0.0000000000
     16501       761  BUTH      C1            -26.6748123729      -27.6845440413       -3.4004410877  BUTH      126             0.0000000000
     16502       761  BUTH      DC1           -26.6585628796      -27.6313081693       -3.4037800089  BUTH      126             0.0000000000
     16503       761  BUTH      C2            -25.8915095854      -26.8800715368       -2.3677815250  BUTH      126             0.0000000000
     16504       761  BUTH      DC2           -25.8955581128      -26.9206928400       -2.3156337670  BUTH      126             0.0000000000
     16505       761  BUTH      C3            -25.9410236917      -25.3596667433       -2.6372493626  BUTH      126             0.0000000000
     16506       761  BUTH      DC3           -25.9359714300      -25.3696338577       -2.6830674638  BUTH      126             0.0000000000
     16507       761  BUTH      C4            -25.6250806443      -24.9952280070       -3.9118372972  BUTH      126             0.0000000000
     16508       761  BUTH      DC4           -25.6225312541      -24.9943904982       -3.9061312013  BUTH      126             0.0000000000
     16509       761  BUTH      O1            -26.5407605730      -24.4633521185       -4.5584191649  BUTH      126             0.0000000000
     16510       761  BUTH      DO1           -26.4863297015      -24.4488555909       -4.5661773702  BUTH      126             0.0000000000
     16511       761  BUTH      O2            -24.4749402465      -24.6630738002       -4.2531339393  BUTH      126             0.0000000000
     16512       761  BUTH      DO2           -24.4658337206      -24.6601396666       -4.2396316292  BUTH      126             0.0000000000
     16513       761  BUTH      H1            -27.7411443966      -27.3739005787       -3.4279666085  BUTH      126             0.0000000000
     16514       761  BUTH      H2            -26.2576108199      -27.5547473121       -4.4219187796  BUTH      126             0.0000000000
     16515       761  BUTH      H3            -26.6471157567      -28.7700059044       -3.1652253526  BUTH      126             0.0000000000
     16516       761  BUTH      H4            -24.8322240333      -27.2148665962       -2.3799218388  BUTH      126             0.0000000000
     16517       761  BUTH      H5            -26.2895413676      -27.0856438496       -1.3511047194  BUTH      126             0.0000000000
     16518       761  BUTH      H6            -25.2560348053      -24.9030777408       -1.8911677929  BUTH      126             0.0000000000
     16519       761  BUTH      H7            -26.9515841145      -25.0364920364       -2.3076333124  BUTH      126             0.0000000000
     16520       761  BUTH      H8            -24.7326670239      -24.2349156280       -5.0844927594  BUTH      126             0.0000000000
     16521       761  BUTH      H9            -26.2762222932      -24.1286251052       -5.4284411914  BUTH      126             0.0000000000
     16522       761  BUTH      LPO11         -26.8295183344      -24.4421735614       -4.3617711952  BUTH      126             0.0000000000
     16523       761  BUTH      LPO12         -26.4286934233      -24.3818993160       -4.8798322868  BUTH      126             0.0000000000
     16524       761  BUTH      LPO21         -24.3977373876      -24.3847183543       -4.0555030604  BUTH      126             0.0000000000
     16525       761  BUTH      LPO22         -24.3265030970      -24.9568158792       -4.3722221574  BUTH      126             0.0000000000
     16526       762  BUTH      C1             13.7959977322      -16.4234368684      -21.0459919317  BUTH      127             0.0000000000
     16527       762  BUTH      DC1            13.7250508836      -16.4261269786      -21.0578773123  BUTH      127             0.0000000000
     16528       762  BUTH      C2             13.5116469628      -17.5624658978      -22.0183787666  BUTH      127             0.0000000000
     16529       762  BUTH      DC2            13.5479208991      -17.5464237862      -22.0486470998  BUTH      127             0.0000000000
     16530       762  BUTH      C3             12.0101791442      -17.6978630572      -22.3511563584  BUTH      127             0.0000000000
     16531       762  BUTH      DC3            11.9801543670      -17.6677178984      -22.3179509148  BUTH      127             0.0000000000
     16532       762  BUTH      C4             11.1737183807      -17.7020252038      -21.2733776679  BUTH      127             0.0000000000
     16533       762  BUTH      DC4            11.1733876566      -17.6807540895      -21.2675581809  BUTH      127             0.0000000000
     16534       762  BUTH      O1             10.4303684915      -16.7066104118      -21.1894947025  BUTH      127             0.0000000000
     16535       762  BUTH      DO1            10.4032639700      -16.7400086062      -21.1794447834  BUTH      127             0.0000000000
     16536       762  BUTH      O2             10.6987454878      -18.7388964176      -20.8188248967  BUTH      127             0.0000000000
     16537       762  BUTH      DO2            10.6992502641      -18.7120062513      -20.8120234869  BUTH      127             0.0000000000
     16538       762  BUTH      H1             13.4578094288      -15.4435421476      -21.4456868249  BUTH      127             0.0000000000
     16539       762  BUTH      H2             13.2865248760      -16.5974821303      -20.0741551879  BUTH      127             0.0000000000
     16540       762  BUTH      H3             14.8846827194      -16.3445434681      -20.8389609420  BUTH      127             0.0000000000
     16541       762  BUTH      H4             13.8636704712      -18.5155942550      -21.5689938709  BUTH      127             0.0000000000
     16542       762  BUTH      H5             14.0970144773      -17.4192592107      -22.9517370675  BUTH      127             0.0000000000
     16543       762  BUTH      H6             11.9286278206      -18.6338117009      -22.9441745015  BUTH      127             0.0000000000
     16544       762  BUTH      H7             11.8072535970      -16.8930858840      -23.0897197777  BUTH      127             0.0000000000
     16545       762  BUTH      H8              9.7932397736      -18.4388812800      -20.6428978696  BUTH      127             0.0000000000
     16546       762  BUTH      H9              9.7677452334      -16.7693988149      -20.4852582123  BUTH      127             0.0000000000
     16547       762  BUTH      LPO11          10.4907111579      -16.4892541696      -21.4571045428  BUTH      127             0.0000000000
     16548       762  BUTH      LPO12          10.2270991536      -16.7325745179      -20.9057563698  BUTH      127             0.0000000000
     16549       762  BUTH      LPO21          10.6454436971      -18.9425495579      -21.0984394842  BUTH      127             0.0000000000
     16550       762  BUTH      LPO22          10.8240339264      -18.7587755200      -20.4926230750  BUTH      127             0.0000000000
     16551       763  BUTH      C1             18.3153054354       -8.8396543238       20.5659324821  BUTH      128             0.0000000000
     16552       763  BUTH      DC1            18.2947484994       -8.8973810850       20.4875830292  BUTH      128             0.0000000000
     16553       763  BUTH      C2             18.4260523528       -9.2054423626       19.0994451666  BUTH      128             0.0000000000
     16554       763  BUTH      DC2            18.4534882030       -9.1626850806       19.0306441700  BUTH      128             0.0000000000
     16555       763  BUTH      C3             17.5393370377      -10.4183311682       18.7716633886  BUTH      128             0.0000000000
     16556       763  BUTH      DC3            17.5527907092      -10.4661969672       18.7846050810  BUTH      128             0.0000000000
     16557       763  BUTH      C4             17.7630315516      -11.4688487074       19.6080560602  BUTH      128             0.0000000000
     16558       763  BUTH      DC4            17.7670502911      -11.4747576021       19.5993213730  BUTH      128             0.0000000000
     16559       763  BUTH      O1             16.7160476346      -12.0026757575       20.0067773669  BUTH      128             0.0000000000
     16560       763  BUTH      DO1            16.7561870355      -12.0436129082       19.9709378468  BUTH      128             0.0000000000
     16561       763  BUTH      O2             18.6327927573      -12.3019027915       19.3041490699  BUTH      128             0.0000000000
     16562       763  BUTH      DO2            18.6480194492      -12.2991006770       19.2893413695  BUTH      128             0.0000000000
     16563       763  BUTH      H1             17.2616745384       -8.5894248187       20.8140617382  BUTH      128             0.0000000000
     16564       763  BUTH      H2             18.6424153735       -9.6564781652       21.2442531301  BUTH      128             0.0000000000
     16565       763  BUTH      H3             18.9324324107       -7.9498726251       20.8144557713  BUTH      128             0.0000000000
     16566       763  BUTH      H4             19.4925600375       -9.4409020564       18.8958743152  BUTH      128             0.0000000000
     16567       763  BUTH      H5             18.1264843098       -8.3412883045       18.4687172130  BUTH      128             0.0000000000
     16568       763  BUTH      H6             17.7527171340      -10.6673936780       17.7101749049  BUTH      128             0.0000000000
     16569       763  BUTH      H7             16.4975678664      -10.0324635188       18.7596571072  BUTH      128             0.0000000000
     16570       763  BUTH      H8             18.0978638786      -13.0820430459       19.5189333294  BUTH      128             0.0000000000
     16571       763  BUTH      H9             16.8511895270      -12.7739363932       20.5776142094  BUTH      128             0.0000000000
     16572       763  BUTH      LPO11          16.4385729905      -11.8384965947       19.8705678798  BUTH      128             0.0000000000
     16573       763  BUTH      LPO12          16.7915407270      -12.2698395165       20.2199071839  BUTH      128             0.0000000000
     16574       763  BUTH      LPO21          18.6308945377      -12.3127805700       18.9543232980  BUTH      128             0.0000000000
     16575       763  BUTH      LPO22          18.8591425117      -12.2994799672       19.5710946048  BUTH      128             0.0000000000
     16576       764  BUTH      C1             21.3606356083        5.1195450373       21.5129829473  BUTH      129             0.0000000000
     16577       764  BUTH      DC1            21.3510251662        5.1592202353       21.5495374784  BUTH      129             0.0000000000
     16578       764  BUTH      C2             20.2671509754        5.9773434763       22.1338227953  BUTH      129             0.0000000000
     16579       764  BUTH      DC2            20.1874225923        5.9309520656       22.1268636343  BUTH      129             0.0000000000
     16580       764  BUTH      C3             20.7773734566        7.4049367729       22.4135649747  BUTH      129             0.0000000000
     16581       764  BUTH      DC3            20.7920660751        7.3769512213       22.4340509546  BUTH      129             0.0000000000
     16582       764  BUTH      C4             21.8965447971        7.4752538696       23.1823115930  BUTH      129             0.0000000000
     16583       764  BUTH      DC4            21.8678748026        7.4713899759       23.1789152224  BUTH      129             0.0000000000
     16584       764  BUTH      O1             22.8381154191        8.0844828740       22.6655362333  BUTH      129             0.0000000000
     16585       764  BUTH      DO1            22.8049592232        8.0820252370       22.7233218719  BUTH      129             0.0000000000
     16586       764  BUTH      O2             21.8380070986        7.5517465969       24.4081772001  BUTH      129             0.0000000000
     16587       764  BUTH      DO2            21.8078572892        7.5519019763       24.4074449044  BUTH      129             0.0000000000
     16588       764  BUTH      H1             21.7736752505        5.6051659880       20.6030974886  BUTH      129             0.0000000000
     16589       764  BUTH      H2             22.2082095971        4.9644113856       22.2143194460  BUTH      129             0.0000000000
     16590       764  BUTH      H3             20.9754309750        4.1207905442       21.2156147364  BUTH      129             0.0000000000
     16591       764  BUTH      H4             19.9149268485        5.4967495785       23.0715267303  BUTH      129             0.0000000000
     16592       764  BUTH      H5             19.3884905911        6.0263638983       21.4556827449  BUTH      129             0.0000000000
     16593       764  BUTH      H6             19.9203552323        7.9694075157       22.8392568176  BUTH      129             0.0000000000
     16594       764  BUTH      H7             20.9228224790        7.8743945942       21.4171840556  BUTH      129             0.0000000000
     16595       764  BUTH      H8             22.7349650580        7.8972388029       24.5385672154  BUTH      129             0.0000000000
     16596       764  BUTH      H9             23.5994060739        8.2100001198       23.2517469121  BUTH      129             0.0000000000
     16597       764  BUTH      LPO11          22.7465045569        8.1991865473       22.3478091220  BUTH      129             0.0000000000
     16598       764  BUTH      LPO12          23.1122839881        8.0879003989       22.8830676478  BUTH      129             0.0000000000
     16599       764  BUTH      LPO21          21.6458774009        7.8371989367       24.4722329650  BUTH      129             0.0000000000
     16600       764  BUTH      LPO22          21.8753930780        7.2227294548       24.5215350791  BUTH      129             0.0000000000
     16601       765  BUTH      C1             -7.9235662948      -14.6911032070       -5.2594542558  BUTH      130             0.0000000000
     16602       765  BUTH      DC1            -7.9065531645      -14.6869896964       -5.3077824419  BUTH      130             0.0000000000
     16603       765  BUTH      C2             -8.5367190797      -14.5428466361       -6.6473480942  BUTH      130             0.0000000000
     16604       765  BUTH      DC2            -8.6054784841      -14.5560371081       -6.6375505454  BUTH      130             0.0000000000
     16605       765  BUTH      C3             -7.5613983216      -14.8574427111       -7.7926337089  BUTH      130             0.0000000000
     16606       765  BUTH      DC3            -7.5492188532      -14.8482588736       -7.7774581820  BUTH      130             0.0000000000
     16607       765  BUTH      C4             -6.3331214224      -14.2789663396       -7.6921483124  BUTH      130             0.0000000000
     16608       765  BUTH      DC4            -6.3694284062      -14.2759712802       -7.7012714886  BUTH      130             0.0000000000
     16609       765  BUTH      O1             -5.4227305073      -15.0911700581       -7.8528579329  BUTH      130             0.0000000000
     16610       765  BUTH      DO1            -5.4483758072      -15.0272908617       -7.8869509954  BUTH      130             0.0000000000
     16611       765  BUTH      O2             -6.0774209061      -13.2036734195       -8.2195039964  BUTH      130             0.0000000000
     16612       765  BUTH      DO2            -6.0958361586      -13.1971473721       -8.2377034438  BUTH      130             0.0000000000
     16613       765  BUTH      H1             -7.6348214942      -15.7451570791       -5.0596596739  BUTH      130             0.0000000000
     16614       765  BUTH      H2             -7.0134173070      -14.0664014857       -5.1341642665  BUTH      130             0.0000000000
     16615       765  BUTH      H3             -8.6479981347      -14.3948812705       -4.4709290031  BUTH      130             0.0000000000
     16616       765  BUTH      H4             -8.9216460083      -13.5074719863       -6.7663085714  BUTH      130             0.0000000000
     16617       765  BUTH      H5             -9.3967180648      -15.2398448299       -6.7417740625  BUTH      130             0.0000000000
     16618       765  BUTH      H6             -8.0891357680      -14.5538466321       -8.7219579841  BUTH      130             0.0000000000
     16619       765  BUTH      H7             -7.5473022955      -15.9672245853       -7.8426986127  BUTH      130             0.0000000000
     16620       765  BUTH      H8             -5.1296689682      -13.4027799582       -8.2744844509  BUTH      130             0.0000000000
     16621       765  BUTH      H9             -4.5364042955      -14.7054206217       -7.7851510749  BUTH      130             0.0000000000
     16622       765  BUTH      LPO11          -5.5554411933      -15.4095492790       -7.9122089694  BUTH      130             0.0000000000
     16623       765  BUTH      LPO12          -5.1128989828      -14.9308088943       -7.8247737098  BUTH      130             0.0000000000
     16624       765  BUTH      LPO21          -6.1772306853      -13.2382929484       -8.5531797315  BUTH      130             0.0000000000
     16625       765  BUTH      LPO22          -6.0862455837      -12.9690056159       -7.9599791479  BUTH      130             0.0000000000
     16626       766  BUTH      C1            -19.1851925953       19.9099349154      -26.2422590084  BUTH      131             0.0000000000
     16627       766  BUTH      DC1           -19.1792097576       19.9264343515      -26.2019118386  BUTH      131             0.0000000000
     16628       766  BUTH      C2            -20.5068274441       19.1877541989      -26.0279266720  BUTH      131             0.0000000000
     16629       766  BUTH      DC2           -20.5435130012       19.2560148356      -26.0602650408  BUTH      131             0.0000000000
     16630       766  BUTH      C3            -20.5083895098       18.3578491543      -24.7288530319  BUTH      131             0.0000000000
     16631       766  BUTH      DC3           -20.4749492890       18.3572458876      -24.7549202911  BUTH      131             0.0000000000
     16632       766  BUTH      C4            -19.4463135274       17.5167911522      -24.5912492101  BUTH      131             0.0000000000
     16633       766  BUTH      DC4           -19.4637460918       17.5282505134      -24.6022485101  BUTH      131             0.0000000000
     16634       766  BUTH      O1            -18.6170523239       17.8489601255      -23.7370644212  BUTH      131             0.0000000000
     16635       766  BUTH      DO1           -18.6385569571       17.7909113473      -23.7668732615  BUTH      131             0.0000000000
     16636       766  BUTH      O2            -19.5218873989       16.3089823248      -24.8126931734  BUTH      131             0.0000000000
     16637       766  BUTH      DO2           -19.5365855456       16.3132827992      -24.8127988874  BUTH      131             0.0000000000
     16638       766  BUTH      H1            -18.9466200313       20.5064630218      -25.3358604476  BUTH      131             0.0000000000
     16639       766  BUTH      H2            -18.3569579946       19.1838211265      -26.3875422208  BUTH      131             0.0000000000
     16640       766  BUTH      H3            -19.2211401999       20.5609936948      -27.1417873492  BUTH      131             0.0000000000
     16641       766  BUTH      H4            -20.6888835701       18.5128893063      -26.8914855549  BUTH      131             0.0000000000
     16642       766  BUTH      H5            -21.3404000696       19.9215607987      -25.9962162317  BUTH      131             0.0000000000
     16643       766  BUTH      H6            -21.4724889106       17.8059014167      -24.7151767467  BUTH      131             0.0000000000
     16644       766  BUTH      H7            -20.6120993438       19.0938633738      -23.9031119472  BUTH      131             0.0000000000
     16645       766  BUTH      H8            -18.7660345234       16.0592507810      -24.2584183439  BUTH      131             0.0000000000
     16646       766  BUTH      H9            -17.9276519592       17.1904617382      -23.5636631183  BUTH      131             0.0000000000
     16647       766  BUTH      LPO11         -18.7161941853       18.1475486961      -23.5837159394  BUTH      131             0.0000000000
     16648       766  BUTH      LPO12         -18.3572791258       17.6147140637      -23.7249537640  BUTH      131             0.0000000000
     16649       766  BUTH      LPO21         -19.7896167135       16.1970835619      -24.6169901307  BUTH      131             0.0000000000
     16650       766  BUTH      LPO22         -19.3880292329       16.2666174597      -25.1332976176  BUTH      131             0.0000000000
     16651       767  BUTH      C1             29.5310590217       17.4951966873       17.5560574501  BUTH      132             0.0000000000
     16652       767  BUTH      DC1            29.4379803276       17.5334666353       17.5432125612  BUTH      132             0.0000000000
     16653       767  BUTH      C2             28.2056298521       16.8541239286       17.1734321300  BUTH      132             0.0000000000
     16654       767  BUTH      DC2            28.1763238220       16.8054681925       17.2045974657  BUTH      132             0.0000000000
     16655       767  BUTH      C3             27.5878768227       17.5513724535       15.9603803470  BUTH      132             0.0000000000
     16656       767  BUTH      DC3            27.5585332774       17.6412779790       15.9832893902  BUTH      132             0.0000000000
     16657       767  BUTH      C4             27.4563122852       18.8675488076       16.2315017432  BUTH      132             0.0000000000
     16658       767  BUTH      DC4            27.4445873174       18.9038767019       16.2536665414  BUTH      132             0.0000000000
     16659       767  BUTH      O1             27.9397588615       19.6417505034       15.3924660300  BUTH      132             0.0000000000
     16660       767  BUTH      DO1            27.8641673980       19.6649012729       15.4125745042  BUTH      132             0.0000000000
     16661       767  BUTH      O2             26.3871521915       19.2688330293       16.6258240499  BUTH      132             0.0000000000
     16662       767  BUTH      DO2            26.3640904151       19.2822477973       16.6557213878  BUTH      132             0.0000000000
     16663       767  BUTH      H1             30.2281388667       17.4960036865       16.6909562774  BUTH      132             0.0000000000
     16664       767  BUTH      H2             29.4168423556       18.5436783931       17.9052875544  BUTH      132             0.0000000000
     16665       767  BUTH      H3             30.0438514928       16.9213436354       18.3573423914  BUTH      132             0.0000000000
     16666       767  BUTH      H4             27.4834149181       16.9295578175       18.0142866470  BUTH      132             0.0000000000
     16667       767  BUTH      H5             28.3594379992       15.7770235917       16.9486679909  BUTH      132             0.0000000000
     16668       767  BUTH      H6             26.6210249463       17.0342092153       15.7813255115  BUTH      132             0.0000000000
     16669       767  BUTH      H7             28.2146018585       17.2841936119       15.0827971904  BUTH      132             0.0000000000
     16670       767  BUTH      H8             26.2799553776       19.8686181178       15.8710613781  BUTH      132             0.0000000000
     16671       767  BUTH      H9             27.7718632549       20.5800305392       15.5668295575  BUTH      132             0.0000000000
     16672       767  BUTH      LPO11          28.0839508128       19.4596586898       15.1306430887  BUTH      132             0.0000000000
     16673       767  BUTH      LPO12          27.8889242775       19.9733468031       15.4922645224  BUTH      132             0.0000000000
     16674       767  BUTH      LPO21          26.1594157020       19.0144896715       16.5487166720  BUTH      132             0.0000000000
     16675       767  BUTH      LPO22          26.4625364740       19.4917385496       16.8849192813  BUTH      132             0.0000000000
     16676       768  BUTH      C1            -17.3251688081       -8.0862152321      -11.6665575780  BUTH      133             0.0000000000
     16677       768  BUTH      DC1           -17.3321411975       -8.0741732024      -11.6231849395  BUTH      133             0.0000000000
     16678       768  BUTH      C2            -18.1404612962       -7.4872362690      -10.5284600051  BUTH      133             0.0000000000
     16679       768  BUTH      DC2           -18.2347433990       -7.5309108028      -10.5481274850  BUTH      133             0.0000000000
     16680       768  BUTH      C3            -17.4027343649       -6.2789800171       -9.9257918857  BUTH      133             0.0000000000
     16681       768  BUTH      DC3           -17.4028616699       -6.3277496847       -9.9262475571  BUTH      133             0.0000000000
     16682       768  BUTH      C4            -16.1243764074       -6.5196918122       -9.5135150716  BUTH      133             0.0000000000
     16683       768  BUTH      DC4           -16.1613444423       -6.5266323073       -9.5120120382  BUTH      133             0.0000000000
     16684       768  BUTH      O1            -15.2172610735       -5.9589076840      -10.1295930118  BUTH      133             0.0000000000
     16685       768  BUTH      DO1           -15.2239020199       -5.9871992138      -10.0467621647  BUTH      133             0.0000000000
     16686       768  BUTH      O2            -15.8516058962       -6.8160990345       -8.3618206703  BUTH      133             0.0000000000
     16687       768  BUTH      DO2           -15.8789809019       -6.8120657721       -8.3616119511  BUTH      133             0.0000000000
     16688       768  BUTH      H1            -17.0923842960       -7.3062442466      -12.4227173716  BUTH      133             0.0000000000
     16689       768  BUTH      H2            -16.3480459875       -8.4739158347      -11.3070575939  BUTH      133             0.0000000000
     16690       768  BUTH      H3            -17.8544270739       -8.9138926614      -12.1853607788  BUTH      133             0.0000000000
     16691       768  BUTH      H4            -18.3052443749       -8.2420233767       -9.7300466033  BUTH      133             0.0000000000
     16692       768  BUTH      H5            -19.1351468583       -7.1614155434      -10.9009683773  BUTH      133             0.0000000000
     16693       768  BUTH      H6            -18.0464661743       -5.9347800545       -9.0882617402  BUTH      133             0.0000000000
     16694       768  BUTH      H7            -17.4766786927       -5.4715097189      -10.6852949825  BUTH      133             0.0000000000
     16695       768  BUTH      H8            -14.8979986297       -6.6616091065       -8.4493766144  BUTH      133             0.0000000000
     16696       768  BUTH      H9            -14.3342573098       -6.0633251501       -9.7444146817  BUTH      133             0.0000000000
     16697       768  BUTH      LPO11         -15.3508113366       -5.7618512392      -10.3861725995  BUTH      133             0.0000000000
     16698       768  BUTH      LPO12         -14.9073771112       -6.0469535806       -9.9927725089  BUTH      133             0.0000000000
     16699       768  BUTH      LPO21         -15.9489499181       -6.5391828261       -8.1711860593  BUTH      133             0.0000000000
     16700       768  BUTH      LPO22         -15.8640931554       -7.1657531074       -8.3525417896  BUTH      133             0.0000000000
     16701       769  BUTH      C1             -1.4798586288        1.5496962452       -0.9589201355  BUTH      134             0.0000000000
     16702       769  BUTH      DC1            -1.4752594728        1.4570206287       -0.8867229373  BUTH      134             0.0000000000
     16703       769  BUTH      C2             -0.3568124228        0.7617621275       -0.3027674554  BUTH      134             0.0000000000
     16704       769  BUTH      DC2            -0.2770245637        0.7265182185       -0.3405302070  BUTH      134             0.0000000000
     16705       769  BUTH      C3             -0.8983496100       -0.2279022830        0.7328858050  BUTH      134             0.0000000000
     16706       769  BUTH      DC3            -0.9205180183       -0.2200904055        0.7584731928  BUTH      134             0.0000000000
     16707       769  BUTH      C4             -1.7718189535        0.3610691835        1.5943447650  BUTH      134             0.0000000000
     16708       769  BUTH      DC4            -1.7651615086        0.3459619891        1.5933435645  BUTH      134             0.0000000000
     16709       769  BUTH      O1             -2.9164261699       -0.1133678102        1.5388277755  BUTH      134             0.0000000000
     16710       769  BUTH      DO1            -2.8941084551       -0.1129502283        1.5809893985  BUTH      134             0.0000000000
     16711       769  BUTH      O2             -1.3853992174        0.6803994141        2.7249890771  BUTH      134             0.0000000000
     16712       769  BUTH      DO2            -1.3628063127        0.6580633188        2.7112367596  BUTH      134             0.0000000000
     16713       769  BUTH      H1             -2.2055712453        0.8784715612       -1.4659897792  BUTH      134             0.0000000000
     16714       769  BUTH      H2             -2.0380729969        2.1770022456       -0.2314554274  BUTH      134             0.0000000000
     16715       769  BUTH      H3             -1.0975902946        2.2457850961       -1.7358707337  BUTH      134             0.0000000000
     16716       769  BUTH      H4              0.3231311288        1.4848290095        0.1964039087  BUTH      134             0.0000000000
     16717       769  BUTH      H5              0.2304211454        0.2127547562       -1.0696237944  BUTH      134             0.0000000000
     16718       769  BUTH      H6             -0.0068601343       -0.6530154266        1.2416552320  BUTH      134             0.0000000000
     16719       769  BUTH      H7             -1.3082435423       -1.0795948677        0.1489956554  BUTH      134             0.0000000000
     16720       769  BUTH      H8             -2.2346308348        0.6933357246        3.1935382333  BUTH      134             0.0000000000
     16721       769  BUTH      H9             -3.5131522769        0.1864772443        2.2409473497  BUTH      134             0.0000000000
     16722       769  BUTH      LPO11          -2.9285973948       -0.3690068295        1.3000798895  BUTH      134             0.0000000000
     16723       769  BUTH      LPO12          -3.1252008352        0.0506896584        1.7668591026  BUTH      134             0.0000000000
     16724       769  BUTH      LPO21          -1.2447527923        0.3883866922        2.8570767501  BUTH      134             0.0000000000
     16725       769  BUTH      LPO22          -1.3198835061        1.0235324013        2.7033686093  BUTH      134             0.0000000000
     16726       770  BUTH      C1            -13.1083627839      -22.8513846094        7.1263494681  BUTH      135             0.0000000000
     16727       770  BUTH      DC1           -13.0610184672      -22.8393878527        7.1375951442  BUTH      135             0.0000000000
     16728       770  BUTH      C2            -13.0825295866      -22.9176308303        8.6510620670  BUTH      135             0.0000000000
     16729       770  BUTH      DC2           -13.1139482601      -22.8732760454        8.6424092184  BUTH      135             0.0000000000
     16730       770  BUTH      C3            -11.6745595791      -22.7982190102        9.2607871880  BUTH      135             0.0000000000
     16731       770  BUTH      DC3           -11.6440954295      -22.8158106548        9.2288755662  BUTH      135             0.0000000000
     16732       770  BUTH      C4            -10.7581965581      -23.6202620036        8.6837047634  BUTH      135             0.0000000000
     16733       770  BUTH      DC4           -10.7578450225      -23.6159180557        8.6749135240  BUTH      135             0.0000000000
     16734       770  BUTH      O1             -9.8643960570      -23.0364697480        8.0458294777  BUTH      135             0.0000000000
     16735       770  BUTH      DO1            -9.8477727053      -23.0755870847        8.0691957404  BUTH      135             0.0000000000
     16736       770  BUTH      O2            -10.4391910887      -24.7071480050        9.1890248869  BUTH      135             0.0000000000
     16737       770  BUTH      DO2           -10.4425270665      -24.6987062240        9.1889834416  BUTH      135             0.0000000000
     16738       770  BUTH      H1            -12.7371501372      -21.8719396622        6.7559310993  BUTH      135             0.0000000000
     16739       770  BUTH      H2            -12.4847615845      -23.6541059778        6.6779289628  BUTH      135             0.0000000000
     16740       770  BUTH      H3            -14.1403187594      -23.0016176213        6.7431812195  BUTH      135             0.0000000000
     16741       770  BUTH      H4            -13.5168905054      -23.8911655974        8.9639224985  BUTH      135             0.0000000000
     16742       770  BUTH      H5            -13.7303787010      -22.1269435800        9.0862932691  BUTH      135             0.0000000000
     16743       770  BUTH      H6            -11.8068281857      -23.0112691170       10.3431160055  BUTH      135             0.0000000000
     16744       770  BUTH      H7            -11.4235557373      -21.7164557317        9.2275263801  BUTH      135             0.0000000000
     16745       770  BUTH      H8             -9.5296201338      -24.7505587402        8.8548150934  BUTH      135             0.0000000000
     16746       770  BUTH      H9             -9.1688884056      -23.6189849784        7.7053796089  BUTH      135             0.0000000000
     16747       770  BUTH      LPO11          -9.9135541026      -22.6902469546        8.0604330346  BUTH      135             0.0000000000
     16748       770  BUTH      LPO12          -9.6431682888      -23.2703039587        7.9084255605  BUTH      135             0.0000000000
     16749       770  BUTH      LPO21         -10.3811463946      -24.6361575349        9.5267987264  BUTH      135             0.0000000000
     16750       770  BUTH      LPO22         -10.5938332213      -24.9488173252        8.9885710256  BUTH      135             0.0000000000
     16751       771  BUTH      C1             -2.5942515089       16.7012802973       13.8620803345  BUTH      136             0.0000000000
     16752       771  BUTH      DC1            -2.5536779976       16.6881808438       13.8818290162  BUTH      136             0.0000000000
     16753       771  BUTH      C2             -1.9500927036       15.4561248101       13.2681191342  BUTH      136             0.0000000000
     16754       771  BUTH      DC2            -1.9855628308       15.4592813103       13.2143042725  BUTH      136             0.0000000000
     16755       771  BUTH      C3             -1.4445341178       14.4723867398       14.3382633530  BUTH      136             0.0000000000
     16756       771  BUTH      DC3            -1.4262342047       14.5212507790       14.3584452781  BUTH      136             0.0000000000
     16757       771  BUTH      C4             -0.6004707680       15.0044354477       15.2596867537  BUTH      136             0.0000000000
     16758       771  BUTH      DC4            -0.6059483910       15.0075587046       15.2673421357  BUTH      136             0.0000000000
     16759       771  BUTH      O1             -1.0643379189       15.2762358078       16.3760119335  BUTH      136             0.0000000000
     16760       771  BUTH      DO1            -0.9893787484       15.2664640515       16.3798038930  BUTH      136             0.0000000000
     16761       771  BUTH      O2              0.5815973657       14.7758100089       15.2885300024  BUTH      136             0.0000000000
     16762       771  BUTH      DO2             0.5660309987       14.7614970396       15.3102132688  BUTH      136             0.0000000000
     16763       771  BUTH      H1             -3.4242929265       16.4313198171       14.5494474750  BUTH      136             0.0000000000
     16764       771  BUTH      H2             -1.8546185158       17.2991656739       14.4363599817  BUTH      136             0.0000000000
     16765       771  BUTH      H3             -3.0172354148       17.3481035919       13.0639417244  BUTH      136             0.0000000000
     16766       771  BUTH      H4             -1.0763520160       15.7650980643       12.6553926544  BUTH      136             0.0000000000
     16767       771  BUTH      H5             -2.6683684856       14.9412420600       12.5948460419  BUTH      136             0.0000000000
     16768       771  BUTH      H6             -0.9547013144       13.6587443750       13.7617471547  BUTH      136             0.0000000000
     16769       771  BUTH      H7             -2.3505092351       13.9995853073       14.7741405076  BUTH      136             0.0000000000
     16770       771  BUTH      H8              0.7355752143       15.1869051752       16.1535106879  BUTH      136             0.0000000000
     16771       771  BUTH      H9             -0.3966630600       15.5138300944       17.0368600549  BUTH      136             0.0000000000
     16772       771  BUTH      LPO11          -1.4045552307       15.1948465530       16.3873243165  BUTH      136             0.0000000000
     16773       771  BUTH      LPO12          -0.8137512701       15.4101436477       16.5804013213  BUTH      136             0.0000000000
     16774       771  BUTH      LPO21           0.6059397426       14.4358042328       15.3679247184  BUTH      136             0.0000000000
     16775       771  BUTH      LPO22           0.7245250213       15.0117334023       15.0730959343  BUTH      136             0.0000000000
     16776       772  BUTH      C1             11.0356612347       17.8943901777       -6.6637510584  BUTH      137             0.0000000000
     16777       772  BUTH      DC1            11.0066724847       17.9304697659       -6.6469996335  BUTH      137             0.0000000000
     16778       772  BUTH      C2             11.3526701048       18.9607214308       -5.6239863082  BUTH      137             0.0000000000
     16779       772  BUTH      DC2            11.4126276516       18.9374690007       -5.6022771333  BUTH      137             0.0000000000
     16780       772  BUTH      C3             10.0679803626       19.5815978792       -5.0469696300  BUTH      137             0.0000000000
     16781       772  BUTH      DC3            10.0510056470       19.5951931556       -5.0950600257  BUTH      137             0.0000000000
     16782       772  BUTH      C4              9.1790467403       20.1039791651       -5.9308868810  BUTH      137             0.0000000000
     16783       772  BUTH      DC4             9.1712022295       20.0917966300       -5.9360061815  BUTH      137             0.0000000000
     16784       772  BUTH      O1              8.1002752635       19.4915438615       -6.0016886493  BUTH      137             0.0000000000
     16785       772  BUTH      DO1             8.0790289755       19.5355432486       -6.0054583413  BUTH      137             0.0000000000
     16786       772  BUTH      O2              9.1210652033       21.3201115296       -6.1417225796  BUTH      137             0.0000000000
     16787       772  BUTH      DO2             9.1296633690       21.3070734192       -6.1373705591  BUTH      137             0.0000000000
     16788       772  BUTH      H1             10.4055678535       17.0914285412       -6.2249390927  BUTH      137             0.0000000000
     16789       772  BUTH      H2             10.4880286805       18.3225678849       -7.5304017596  BUTH      137             0.0000000000
     16790       772  BUTH      H3             11.9612908183       17.4159420278       -7.0492614245  BUTH      137             0.0000000000
     16791       772  BUTH      H4             11.9761138985       19.7596950526       -6.0792664284  BUTH      137             0.0000000000
     16792       772  BUTH      H5             11.9341210269       18.5066056074       -4.7933151061  BUTH      137             0.0000000000
     16793       772  BUTH      H6             10.3945766597       20.3212580595       -4.2850256187  BUTH      137             0.0000000000
     16794       772  BUTH      H7              9.6354695443       18.7452289733       -4.4572727200  BUTH      137             0.0000000000
     16795       772  BUTH      H8              8.1780483786       21.3969673229       -6.3555272924  BUTH      137             0.0000000000
     16796       772  BUTH      H9              7.4250862600       19.9186963968       -6.5499782819  BUTH      137             0.0000000000
     16797       772  BUTH      LPO11           8.1025032688       19.2193254475       -5.7817064430  BUTH      137             0.0000000000
     16798       772  BUTH      LPO12           7.8901837054       19.6457549117       -6.2353133253  BUTH      137             0.0000000000
     16799       772  BUTH      LPO21           9.1267131450       21.4664792541       -5.8238474627  BUTH      137             0.0000000000
     16800       772  BUTH      LPO22           9.2622924578       21.3628113734       -6.4591049766  BUTH      137             0.0000000000
     16801       773  BUTH      C1            -15.6316514876      -13.2435662878      -29.4281923930  BUTH      138             0.0000000000
     16802       773  BUTH      DC1           -15.6726062162      -13.2549797855      -29.3741959918  BUTH      138             0.0000000000
     16803       773  BUTH      C2            -15.5441841386      -12.9702987127      -27.9300308715  BUTH      138             0.0000000000
     16804       773  BUTH      DC2           -15.4811416395      -12.9657243237      -27.9116525269  BUTH      138             0.0000000000
     16805       773  BUTH      C3            -16.5760240000      -13.7802008157      -27.1195285817  BUTH      138             0.0000000000
     16806       773  BUTH      DC3           -16.6132900291      -13.7839130566      -27.1365190787  BUTH      138             0.0000000000
     16807       773  BUTH      C4            -17.8483958993      -13.7151769146      -27.6049282667  BUTH      138             0.0000000000
     16808       773  BUTH      DC4           -17.8467596661      -13.7152169677      -27.6007512867  BUTH      138             0.0000000000
     16809       773  BUTH      O1            -18.3201207154      -14.8009039493      -27.9714022200  BUTH      138             0.0000000000
     16810       773  BUTH      DO1           -18.3630503290      -14.7551749938      -27.9372688854  BUTH      138             0.0000000000
     16811       773  BUTH      O2            -18.7004198727      -12.9850757868      -27.1062618778  BUTH      138             0.0000000000
     16812       773  BUTH      DO2           -18.6989285771      -12.9909933350      -27.0922994018  BUTH      138             0.0000000000
     16813       773  BUTH      H1            -15.4419286362      -14.3141275200      -29.6567200465  BUTH      138             0.0000000000
     16814       773  BUTH      H2            -16.6293640074      -12.9815564995      -29.8407958328  BUTH      138             0.0000000000
     16815       773  BUTH      H3            -14.8802125964      -12.6460293063      -29.9873079005  BUTH      138             0.0000000000
     16816       773  BUTH      H4            -15.7293377744      -11.8903115752      -27.7465454099  BUTH      138             0.0000000000
     16817       773  BUTH      H5            -14.5178645992      -13.1882094982      -27.5646487528  BUTH      138             0.0000000000
     16818       773  BUTH      H6            -16.4995540674      -13.3884870735      -26.0826902650  BUTH      138             0.0000000000
     16819       773  BUTH      H7            -16.1559482992      -14.8068405649      -27.0573334628  BUTH      138             0.0000000000
     16820       773  BUTH      H8            -19.4535623063      -13.5266049365      -27.3898507636  BUTH      138             0.0000000000
     16821       773  BUTH      H9            -19.2580292754      -14.7715943700      -28.2131241321  BUTH      138             0.0000000000
     16822       773  BUTH      LPO11         -18.0854186005      -15.0559412014      -27.9227101539  BUTH      138             0.0000000000
     16823       773  BUTH      LPO12         -18.6459599003      -14.7556287817      -28.0908969262  BUTH      138             0.0000000000
     16824       773  BUTH      LPO21         -18.6908678685      -13.0544355475      -26.7633362550  BUTH      138             0.0000000000
     16825       773  BUTH      LPO22         -18.7257939244      -12.7122423063      -27.3240187363  BUTH      138             0.0000000000
     16826       774  BUTH      C1            -12.8314280400       -3.9765701180        8.0985773434  BUTH      139             0.0000000000
     16827       774  BUTH      DC1           -12.8556870977       -4.0063824701        8.0629132867  BUTH      139             0.0000000000
     16828       774  BUTH      C2            -12.4974979023       -3.2458530106        9.3936689270  BUTH      139             0.0000000000
     16829       774  BUTH      DC2           -12.4681283135       -3.3491235693        9.3830772690  BUTH      139             0.0000000000
     16830       774  BUTH      C3            -13.5833745443       -2.2447745970        9.8405322655  BUTH      139             0.0000000000
     16831       774  BUTH      DC3           -13.5624338548       -2.2744407776        9.7908971710  BUTH      139             0.0000000000
     16832       774  BUTH      C4            -14.0006150108       -1.3064432326        8.9374173355  BUTH      139             0.0000000000
     16833       774  BUTH      DC4           -14.0183464835       -1.3501604414        8.9381139082  BUTH      139             0.0000000000
     16834       774  BUTH      O1            -15.0365912485       -1.5988555867        8.3011657836  BUTH      139             0.0000000000
     16835       774  BUTH      DO1           -15.0360572023       -1.5639307871        8.2860360013  BUTH      139             0.0000000000
     16836       774  BUTH      O2            -13.6805486143       -0.1171251645        9.0274140249  BUTH      139             0.0000000000
     16837       774  BUTH      DO2           -13.7123358852       -0.1504850031        9.0355259680  BUTH      139             0.0000000000
     16838       774  BUTH      H1            -13.7821536822       -4.5411024374        8.2069517553  BUTH      139             0.0000000000
     16839       774  BUTH      H2            -12.9554363020       -3.2397935488        7.2763223711  BUTH      139             0.0000000000
     16840       774  BUTH      H3            -12.0139921737       -4.6735723795        7.8151916490  BUTH      139             0.0000000000
     16841       774  BUTH      H4            -11.5580532525       -2.6682179374        9.2591234941  BUTH      139             0.0000000000
     16842       774  BUTH      H5            -12.3069119569       -3.9668520593       10.2171726424  BUTH      139             0.0000000000
     16843       774  BUTH      H6            -13.1616915568       -1.7488269077       10.7408324086  BUTH      139             0.0000000000
     16844       774  BUTH      H7            -14.4131608384       -2.8567394610       10.2543857561  BUTH      139             0.0000000000
     16845       774  BUTH      H8            -14.2874742550        0.3103480264        8.4030680170  BUTH      139             0.0000000000
     16846       774  BUTH      H9            -15.4094478617       -0.8728671351        7.7787868847  BUTH      139             0.0000000000
     16847       774  BUTH      LPO11         -15.1538879776       -1.9130471029        8.4012915470  BUTH      139             0.0000000000
     16848       774  BUTH      LPO12         -15.1176486101       -1.3406510561        8.0792195638  BUTH      139             0.0000000000
     16849       774  BUTH      LPO21         -13.8206750042       -0.0109892362        9.3300685467  BUTH      139             0.0000000000
     16850       774  BUTH      LPO22         -13.3814915944       -0.0926445596        8.8472318981  BUTH      139             0.0000000000
     16851       775  BUTH      C1             16.7017157421       -2.2171855978       21.7273174982  BUTH      140             0.0000000000
     16852       775  BUTH      DC1            16.7350913897       -2.2654834582       21.6893650187  BUTH      140             0.0000000000
     16853       775  BUTH      C2             17.9987397300       -2.2405278144       20.9267835002  BUTH      140             0.0000000000
     16854       775  BUTH      DC2            18.0386479111       -2.1862048997       20.9300341081  BUTH      140             0.0000000000
     16855       775  BUTH      C3             17.9279679557       -3.2144027901       19.7366181631  BUTH      140             0.0000000000
     16856       775  BUTH      DC3            17.9151294500       -3.2607112155       19.7691969222  BUTH      140             0.0000000000
     16857       775  BUTH      C4             17.5077582055       -4.4721991588       20.0338238539  BUTH      140             0.0000000000
     16858       775  BUTH      DC4            17.5062423998       -4.4822862347       20.0499208607  BUTH      140             0.0000000000
     16859       775  BUTH      O1             16.3569830611       -4.7595934014       19.6693607691  BUTH      140             0.0000000000
     16860       775  BUTH      DO1            16.3750335692       -4.7992698359       19.6749269748  BUTH      140             0.0000000000
     16861       775  BUTH      O2             18.2912365974       -5.4352272955       20.1656818520  BUTH      140             0.0000000000
     16862       775  BUTH      DO2            18.3111434943       -5.4317950783       20.1727635765  BUTH      140             0.0000000000
     16863       775  BUTH      H1             15.8454245632       -1.8989901667       21.0949899833  BUTH      140             0.0000000000
     16864       775  BUTH      H2             16.4537517125       -3.2155511428       22.1469614906  BUTH      140             0.0000000000
     16865       775  BUTH      H3             16.7661754908       -1.5041845029       22.5769029139  BUTH      140             0.0000000000
     16866       775  BUTH      H4             18.8376807029       -2.5362927913       21.5923825718  BUTH      140             0.0000000000
     16867       775  BUTH      H5             18.2148683712       -1.2177183722       20.5506581816  BUTH      140             0.0000000000
     16868       775  BUTH      H6             18.9336367593       -3.1991997829       19.2646858292  BUTH      140             0.0000000000
     16869       775  BUTH      H7             17.2785675434       -2.7028044508       18.9944138488  BUTH      140             0.0000000000
     16870       775  BUTH      H8             17.6781326731       -6.1208751854       19.8576387558  BUTH      140             0.0000000000
     16871       775  BUTH      H9             16.1235392759       -5.6920314941       19.7919340221  BUTH      140             0.0000000000
     16872       775  BUTH      LPO11          16.2108780241       -4.4859200544       19.5073230657  BUTH      140             0.0000000000
     16873       775  BUTH      LPO12          16.2810536197       -5.0887175730       19.7610777227  BUTH      140             0.0000000000
     16874       775  BUTH      LPO21          18.5092419463       -5.4136264396       19.8927220182  BUTH      140             0.0000000000
     16875       775  BUTH      LPO22          18.2975947742       -5.5013897998       20.5093126082  BUTH      140             0.0000000000
     16876       776  BUTH      C1              8.2646608791       18.9255895543      -24.8410825380  BUTH      141             0.0000000000
     16877       776  BUTH      DC1             8.3092910927       18.9048311212      -24.9084501526  BUTH      141             0.0000000000
     16878       776  BUTH      C2              8.3511661552       18.1706070847      -26.1589792466  BUTH      141             0.0000000000
     16879       776  BUTH      DC2             8.2824107441       18.1423684239      -26.1931068044  BUTH      141             0.0000000000
     16880       776  BUTH      C3              9.7037415871       17.4643320497      -26.3739315295  BUTH      141             0.0000000000
     16881       776  BUTH      DC3             9.7210697379       17.4919488938      -26.3670177079  BUTH      141             0.0000000000
     16882       776  BUTH      C4             10.7753534073       18.2913080043      -26.2277878234  BUTH      141             0.0000000000
     16883       776  BUTH      DC4            10.7638258610       18.2908192342      -26.2433586733  BUTH      141             0.0000000000
     16884       776  BUTH      O1             11.5528199012       17.9932640147      -25.3148127656  BUTH      141             0.0000000000
     16885       776  BUTH      DO1            11.5712163600       18.0215981627      -25.3859096707  BUTH      141             0.0000000000
     16886       776  BUTH      O2             11.3390538099       18.8125165184      -27.1930213292  BUTH      141             0.0000000000
     16887       776  BUTH      DO2            11.3337918397       18.8054569328      -27.2108008600  BUTH      141             0.0000000000
     16888       776  BUTH      H1              8.4202835735       18.2556959395      -23.9685316087  BUTH      141             0.0000000000
     16889       776  BUTH      H2              9.0203391286       19.7377260165      -24.7802076523  BUTH      141             0.0000000000
     16890       776  BUTH      H3              7.2652532004       19.3955909706      -24.7202356909  BUTH      141             0.0000000000
     16891       776  BUTH      H4              8.2211269527       18.9266815042      -26.9625726004  BUTH      141             0.0000000000
     16892       776  BUTH      H5              7.5199918035       17.4370385851      -26.2321055308  BUTH      141             0.0000000000
     16893       776  BUTH      H6              9.6589791930       17.0154537930      -27.3892273685  BUTH      141             0.0000000000
     16894       776  BUTH      H7              9.6969574213       16.5900669892      -25.6884130532  BUTH      141             0.0000000000
     16895       776  BUTH      H8             12.1801442128       18.9371675355      -26.7261926047  BUTH      141             0.0000000000
     16896       776  BUTH      H9             12.3509978069       18.5408485495      -25.2698215549  BUTH      141             0.0000000000
     16897       776  BUTH      LPO11          11.4397133165       17.7057686953      -25.1503337644  BUTH      141             0.0000000000
     16898       776  BUTH      LPO12          11.8165661080       18.2230112070      -25.3023964036  BUTH      141             0.0000000000
     16899       776  BUTH      LPO21          11.4173310095       18.5475707380      -27.4079083077  BUTH      141             0.0000000000
     16900       776  BUTH      LPO22          11.2168429973       19.1402699111      -27.2049473859  BUTH      141             0.0000000000
     16901       777  BUTH      C1            -17.7279639685       15.2942626993       19.3642083942  BUTH      142             0.0000000000
     16902       777  BUTH      DC1           -17.7328415028       15.2663714214       19.3892983978  BUTH      142             0.0000000000
     16903       777  BUTH      C2            -18.3882884118       15.3704853686       20.7328144837  BUTH      142             0.0000000000
     16904       777  BUTH      DC2           -18.3589966125       15.4236071041       20.7536476152  BUTH      142             0.0000000000
     16905       777  BUTH      C3            -18.1391135827       14.0981513086       21.5682588391  BUTH      142             0.0000000000
     16906       777  BUTH      DC3           -18.1411789193       14.0776022987       21.5583907194  BUTH      142             0.0000000000
     16907       777  BUTH      C4            -18.5014683893       12.9339345307       20.9574405723  BUTH      142             0.0000000000
     16908       777  BUTH      DC4           -18.4896174287       12.9426443167       20.9671395515  BUTH      142             0.0000000000
     16909       777  BUTH      O1            -17.5595595929       12.2264547959       20.5740698692  BUTH      142             0.0000000000
     16910       777  BUTH      DO1           -17.6197469991       12.1958909212       20.5932877248  BUTH      142             0.0000000000
     16911       777  BUTH      O2            -19.4595047285       12.2746463241       21.3375619170  BUTH      142             0.0000000000
     16912       777  BUTH      DO2           -19.4339312651       12.2645264257       21.3646913375  BUTH      142             0.0000000000
     16913       777  BUTH      H1            -16.6424320104       15.0895626726       19.4826958094  BUTH      142             0.0000000000
     16914       777  BUTH      H2            -18.1543927649       14.4779099154       18.7428810921  BUTH      142             0.0000000000
     16915       777  BUTH      H3            -17.8523692776       16.2451223501       18.8032179812  BUTH      142             0.0000000000
     16916       777  BUTH      H4            -19.4818502734       15.5086281039       20.5936741241  BUTH      142             0.0000000000
     16917       777  BUTH      H5            -18.0136918518       16.2650556928       21.2747945136  BUTH      142             0.0000000000
     16918       777  BUTH      H6            -18.6981949225       14.2574709785       22.5150250724  BUTH      142             0.0000000000
     16919       777  BUTH      H7            -17.0676890174       14.1447723593       21.8584258229  BUTH      142             0.0000000000
     16920       777  BUTH      H8            -19.3011889893       11.5200402351       20.7489994504  BUTH      142             0.0000000000
     16921       777  BUTH      H9            -17.8139876414       11.3398641866       20.2771111855  BUTH      142             0.0000000000
     16922       777  BUTH      LPO11         -17.2549348451       12.3801655355       20.6520235190  BUTH      142             0.0000000000
     16923       777  BUTH      LPO12         -17.6821522982       11.9360174627       20.4220265066  BUTH      142             0.0000000000
     16924       777  BUTH      LPO21         -19.3617101574       12.1420225927       21.6463452840  BUTH      142             0.0000000000
     16925       777  BUTH      LPO22         -19.7377525417       12.4226777583       21.1853618876  BUTH      142             0.0000000000
     16926       778  BUTH      C1             -2.0906172343      -20.7382077224      -29.1880120574  BUTH      143             0.0000000000
     16927       778  BUTH      DC1            -2.1268629795      -20.6737197421      -29.1817707135  BUTH      143             0.0000000000
     16928       778  BUTH      C2             -3.1830314321      -20.6293349963      -28.1366341883  BUTH      143             0.0000000000
     16929       778  BUTH      DC2            -3.1835380709      -20.6584692900      -28.1347169973  BUTH      143             0.0000000000
     16930       778  BUTH      C3             -4.1715039278      -19.4851152500      -28.4067574140  BUTH      143             0.0000000000
     16931       778  BUTH      DC3            -4.1421068962      -19.4164866411      -28.4259581228  BUTH      143             0.0000000000
     16932       778  BUTH      C4             -3.5453299056      -18.3089392283      -28.6631145234  BUTH      143             0.0000000000
     16933       778  BUTH      DC4            -3.5379502141      -18.2866938800      -28.6638274117  BUTH      143             0.0000000000
     16934       778  BUTH      O1             -3.6974256562      -17.8555223568      -29.8059358375  BUTH      143             0.0000000000
     16935       778  BUTH      DO1            -3.6882081448      -17.7983955517      -29.7577864646  BUTH      143             0.0000000000
     16936       778  BUTH      O2             -3.4330784204      -17.4119324603      -27.8391004650  BUTH      143             0.0000000000
     16937       778  BUTH      DO2            -3.4373631846      -17.3989212931      -27.8291934586  BUTH      143             0.0000000000
     16938       778  BUTH      H1             -2.5248927011      -20.8239003765      -30.2070226503  BUTH      143             0.0000000000
     16939       778  BUTH      H2             -1.3963353733      -19.8710885842      -29.1680596729  BUTH      143             0.0000000000
     16940       778  BUTH      H3             -1.4906946182      -21.6584450354      -29.0219483847  BUTH      143             0.0000000000
     16941       778  BUTH      H4             -2.7407168458      -20.5190703768      -27.1234606979  BUTH      143             0.0000000000
     16942       778  BUTH      H5             -3.7557135129      -21.5813484175      -28.1417994750  BUTH      143             0.0000000000
     16943       778  BUTH      H6             -4.8423687704      -19.4653069554      -27.5213936491  BUTH      143             0.0000000000
     16944       778  BUTH      H7             -4.8258546296      -19.8557185895      -29.2245589326  BUTH      143             0.0000000000
     16945       778  BUTH      H8             -3.4137149472      -16.7220794877      -28.5207366825  BUTH      143             0.0000000000
     16946       778  BUTH      H9             -3.3272713959      -16.9703538057      -29.9416688845  BUTH      143             0.0000000000
     16947       778  BUTH      LPO11          -3.9001683722      -18.0701669771      -29.9938801860  BUTH      143             0.0000000000
     16948       778  BUTH      LPO12          -3.5240761148      -17.5532529266      -29.8388467480  BUTH      143             0.0000000000
     16949       778  BUTH      LPO21          -3.7532413508      -17.3699823904      -27.7040601389  BUTH      143             0.0000000000
     16950       778  BUTH      LPO22          -3.0983104206      -17.4213110980      -27.7374027393  BUTH      143             0.0000000000
     16951       779  BUTH      C1              7.9202848914        2.4743052232       -7.5020135744  BUTH      144             0.0000000000
     16952       779  BUTH      DC1             7.9235707546        2.4682053379       -7.5211359317  BUTH      144             0.0000000000
     16953       779  BUTH      C2              7.0920343039        3.5368041385       -6.7834355786  BUTH      144             0.0000000000
     16954       779  BUTH      DC2             7.2006586302        3.5611572183       -6.7632033181  BUTH      144             0.0000000000
     16955       779  BUTH      C3              5.6289291216        3.1050414187       -6.5355545226  BUTH      144             0.0000000000
     16956       779  BUTH      DC3             5.6869505966        3.1001486311       -6.5606496776  BUTH      144             0.0000000000
     16957       779  BUTH      C4              4.8984561719        2.7203767396       -7.6261664586  BUTH      144             0.0000000000
     16958       779  BUTH      DC4             4.9369847942        2.7215795846       -7.5904382454  BUTH      144             0.0000000000
     16959       779  BUTH      O1              4.6735118327        1.5083150871       -7.6742159626  BUTH      144             0.0000000000
     16960       779  BUTH      DO1             4.6486364505        1.5544641461       -7.6753264287  BUTH      144             0.0000000000
     16961       779  BUTH      O2              4.1251083436        3.4739049846       -8.2166780456  BUTH      144             0.0000000000
     16962       779  BUTH      DO2             4.1600348747        3.4618376843       -8.1882194321  BUTH      144             0.0000000000
     16963       779  BUTH      H1              7.9358045537        1.5298239578       -6.9171757501  BUTH      144             0.0000000000
     16964       779  BUTH      H2              7.4732751872        2.2370340771       -8.4910564087  BUTH      144             0.0000000000
     16965       779  BUTH      H3              8.9699280013        2.8070690795       -7.6497923203  BUTH      144             0.0000000000
     16966       779  BUTH      H4              7.0732368429        4.4708322616       -7.3847334430  BUTH      144             0.0000000000
     16967       779  BUTH      H5              7.5586771167        3.7754366043       -5.8038336025  BUTH      144             0.0000000000
     16968       779  BUTH      H6              5.1450156313        3.9663358955       -6.0273020654  BUTH      144             0.0000000000
     16969       779  BUTH      H7              5.6852129591        2.3355989309       -5.7361100980  BUTH      144             0.0000000000
     16970       779  BUTH      H8              3.5220362458        2.8472408378       -8.6462081283  BUTH      144             0.0000000000
     16971       779  BUTH      H9              4.0753820403        1.2357787228       -8.3862030985  BUTH      144             0.0000000000
     16972       779  BUTH      LPO11           4.8172169946        1.3488427911       -7.3977789658  BUTH      144             0.0000000000
     16973       779  BUTH      LPO12           4.4861533629        1.4325714150       -7.9599775765  BUTH      144             0.0000000000
     16974       779  BUTH      LPO21           3.9151666933        3.5986671715       -7.9659612727  BUTH      144             0.0000000000
     16975       779  BUTH      LPO22           4.3059299396        3.5851792375       -8.4949254015  BUTH      144             0.0000000000
     16976       780  BUTH      C1             -8.0763335765       24.2739899119       13.7634868814  BUTH      145             0.0000000000
     16977       780  BUTH      DC1            -8.0463869918       24.2546400869       13.6939679094  BUTH      145             0.0000000000
     16978       780  BUTH      C2             -7.4074485604       23.0048196862       13.2460297005  BUTH      145             0.0000000000
     16979       780  BUTH      DC2            -7.3263203382       22.9967565260       13.2834502790  BUTH      145             0.0000000000
     16980       780  BUTH      C3             -7.7771355142       22.7454862530       11.7802686067  BUTH      145             0.0000000000
     16981       780  BUTH      DC3            -7.8025118604       22.7622081511       11.7886408523  BUTH      145             0.0000000000
     16982       780  BUTH      C4             -9.1100667417       22.9115873519       11.5554655569  BUTH      145             0.0000000000
     16983       780  BUTH      DC4            -9.0969628341       22.9124478871       11.5623974019  BUTH      145             0.0000000000
     16984       780  BUTH      O1             -9.3929960348       23.6939337007       10.6389550049  BUTH      145             0.0000000000
     16985       780  BUTH      DO1            -9.4265993923       23.6344365806       10.6459471023  BUTH      145             0.0000000000
     16986       780  BUTH      O2             -9.8845175133       21.9934196236       11.6448277032  BUTH      145             0.0000000000
     16987       780  BUTH      DO2            -9.8816984065       22.0040694807       11.6434170517  BUTH      145             0.0000000000
     16988       780  BUTH      H1             -7.8356077717       25.1502736867       13.1243477471  BUTH      145             0.0000000000
     16989       780  BUTH      H2             -9.1832982619       24.1793947539       13.7620929057  BUTH      145             0.0000000000
     16990       780  BUTH      H3             -7.7763719226       24.5030143624       14.8084231512  BUTH      145             0.0000000000
     16991       780  BUTH      H4             -7.7725050833       22.1322604534       13.8288634009  BUTH      145             0.0000000000
     16992       780  BUTH      H5             -6.3057996133       23.0517883244       13.3819875783  BUTH      145             0.0000000000
     16993       780  BUTH      H6             -7.4364731133       21.7102271037       11.5646100238  BUTH      145             0.0000000000
     16994       780  BUTH      H7             -7.1152259084       23.3949546819       11.1683965338  BUTH      145             0.0000000000
     16995       780  BUTH      H8            -10.3871188873       22.2136094997       10.8449475389  BUTH      145             0.0000000000
     16996       780  BUTH      H9            -10.3362648462       23.7193934254       10.4185990386  BUTH      145             0.0000000000
     16997       780  BUTH      LPO11          -9.1002136054       23.8223740293       10.4965417646  BUTH      145             0.0000000000
     16998       780  BUTH      LPO12          -9.7405031375       23.7168161563       10.6040951888  BUTH      145             0.0000000000
     16999       780  BUTH      LPO21          -9.7044631622       21.7127650727       11.5384629829  BUTH      145             0.0000000000
     17000       780  BUTH      LPO22         -10.1088510634       22.0886569420       11.8960334187  BUTH      145             0.0000000000
     17001       781  BUTH      C1            -22.6412274577      -24.2519374274       23.8957365594  BUTH      146             0.0000000000
     17002       781  BUTH      DC1           -22.6192593459      -24.2508884128       23.8905180205  BUTH      146             0.0000000000
     17003       781  BUTH      C2            -22.6358658374      -23.5414883556       25.2433970570  BUTH      146             0.0000000000
     17004       781  BUTH      DC2           -22.6951594297      -23.4819100730       25.1936568849  BUTH      146             0.0000000000
     17005       781  BUTH      C3            -21.3535640800      -23.8212924539       26.0475356132  BUTH      146             0.0000000000
     17006       781  BUTH      DC3           -21.3949460478      -23.8940178932       26.0061688624  BUTH      146             0.0000000000
     17007       781  BUTH      C4            -21.0425210857      -25.1376316537       26.2064512764  BUTH      146             0.0000000000
     17008       781  BUTH      DC4           -21.0593676582      -25.1479310101       26.2093366575  BUTH      146             0.0000000000
     17009       781  BUTH      O1            -20.1353844701      -25.6011596848       25.5048427378  BUTH      146             0.0000000000
     17010       781  BUTH      DO1           -20.1641074841      -25.6333444034       25.5696010571  BUTH      146             0.0000000000
     17011       781  BUTH      O2            -21.3011176922      -25.8071418219       27.2106178704  BUTH      146             0.0000000000
     17012       781  BUTH      DO2           -21.3165842133      -25.8188751591       27.2205553675  BUTH      146             0.0000000000
     17013       781  BUTH      H1            -21.7526846572      -23.9658283596       23.2932796771  BUTH      146             0.0000000000
     17014       781  BUTH      H2            -22.5841163147      -25.3518528806       24.0414942771  BUTH      146             0.0000000000
     17015       781  BUTH      H3            -23.5690456571      -24.0344592720       23.3246169215  BUTH      146             0.0000000000
     17016       781  BUTH      H4            -23.5072430715      -23.8869339928       25.8397945986  BUTH      146             0.0000000000
     17017       781  BUTH      H5            -22.7357621368      -22.4430806049       25.1098225698  BUTH      146             0.0000000000
     17018       781  BUTH      H6            -21.4880676358      -23.3124569896       27.0259610141  BUTH      146             0.0000000000
     17019       781  BUTH      H7            -20.5458936633      -23.2327826372       25.5621021023  BUTH      146             0.0000000000
     17020       781  BUTH      H8            -20.5310930695      -26.3844340364       27.0893917204  BUTH      146             0.0000000000
     17021       781  BUTH      H9            -19.8709045440      -26.5057022680       25.7302625326  BUTH      146             0.0000000000
     17022       781  BUTH      LPO11         -20.0061944051      -25.3517324292       25.2960462549  BUTH      146             0.0000000000
     17023       781  BUTH      LPO12         -20.0889944151      -25.9403047469       25.5778399273  BUTH      146             0.0000000000
     17024       781  BUTH      LPO21         -21.1999171832      -25.6102630885       27.4817215799  BUTH      146             0.0000000000
     17025       781  BUTH      LPO22         -21.5635463599      -26.0184749827       27.1159104813  BUTH      146             0.0000000000
     17026       782  BUTH      C1            -15.6922539217        0.9344500458       -1.5363244637  BUTH      147             0.0000000000
     17027       782  BUTH      DC1           -15.5995517345        0.8678984374       -1.5274358983  BUTH      147             0.0000000000
     17028       782  BUTH      C2            -14.2809257830        1.4914169660       -1.6170287123  BUTH      147             0.0000000000
     17029       782  BUTH      DC2           -14.2657972761        1.5299272001       -1.6196675178  BUTH      147             0.0000000000
     17030       782  BUTH      C3            -13.3399631540        0.5734106342       -2.4195671359  BUTH      147             0.0000000000
     17031       782  BUTH      DC3           -13.3313215526        0.4942173625       -2.3979663126  BUTH      147             0.0000000000
     17032       782  BUTH      C4            -13.2740998379       -0.7033792187       -1.9609442159  BUTH      147             0.0000000000
     17033       782  BUTH      DC4           -13.2670298772       -0.7309035193       -1.9407110269  BUTH      147             0.0000000000
     17034       782  BUTH      O1            -13.6835926254       -1.5898906454       -2.7193761186  BUTH      147             0.0000000000
     17035       782  BUTH      DO1           -13.6086343107       -1.6300434989       -2.6618969263  BUTH      147             0.0000000000
     17036       782  BUTH      O2            -12.3230306856       -1.1390221109       -1.3451936522  BUTH      147             0.0000000000
     17037       782  BUTH      DO2           -12.3088878445       -1.1527656250       -1.3357139793  BUTH      147             0.0000000000
     17038       782  BUTH      H1            -16.1508031179        0.8773099895       -2.5466653217  BUTH      147             0.0000000000
     17039       782  BUTH      H2            -15.7325832131       -0.0828313052       -1.0915400202  BUTH      147             0.0000000000
     17040       782  BUTH      H3            -16.3447851478        1.6044412860       -0.9366280920  BUTH      147             0.0000000000
     17041       782  BUTH      H4            -13.8801484081        1.6424172628       -0.5918958396  BUTH      147             0.0000000000
     17042       782  BUTH      H5            -14.3211788530        2.4932127069       -2.0956788809  BUTH      147             0.0000000000
     17043       782  BUTH      H6            -12.3588331458        1.0938967292       -2.3912982156  BUTH      147             0.0000000000
     17044       782  BUTH      H7            -13.6663526097        0.6664079223       -3.4774624183  BUTH      147             0.0000000000
     17045       782  BUTH      H8            -12.4238063059       -2.0031056662       -1.7742669372  BUTH      147             0.0000000000
     17046       782  BUTH      H9            -13.5140645458       -2.4939206095       -2.4144973632  BUTH      147             0.0000000000
     17047       782  BUTH      LPO11         -13.7961144497       -1.4484537440       -3.0191000616  BUTH      147             0.0000000000
     17048       782  BUTH      LPO12         -13.6503610572       -1.9029831170       -2.5665076553  BUTH      147             0.0000000000
     17049       782  BUTH      LPO21         -12.0405902805       -1.0091250906       -1.5059860081  BUTH      147             0.0000000000
     17050       782  BUTH      LPO22         -12.4422909291       -1.2024520836       -1.0223103407  BUTH      147             0.0000000000
     17051       783  BUTH      C1            -17.5915147113       -5.1764274326       25.3974842059  BUTH      148             0.0000000000
     17052       783  BUTH      DC1           -17.7378804876       -5.0884868629       25.3650767190  BUTH      148             0.0000000000
     17053       783  BUTH      C2            -19.0342341557       -4.7689979360       25.5737549921  BUTH      148             0.0000000000
     17054       783  BUTH      DC2           -19.1366759027       -4.8039349530       25.5680596565  BUTH      148             0.0000000000
     17055       783  BUTH      C3            -19.3380164806       -3.5006092275       24.7798489354  BUTH      148             0.0000000000
     17056       783  BUTH      DC3           -19.3263536448       -3.4400383298       24.7632074568  BUTH      148             0.0000000000
     17057       783  BUTH      C4            -18.4767072684       -2.5163119222       25.1489418786  BUTH      148             0.0000000000
     17058       783  BUTH      DC4           -18.4925872151       -2.4986713442       25.1577676210  BUTH      148             0.0000000000
     17059       783  BUTH      O1            -17.9272729874       -1.9572869302       24.1933166026  BUTH      148             0.0000000000
     17060       783  BUTH      DO1           -17.9796143604       -1.8765339341       24.2595131463  BUTH      148             0.0000000000
     17061       783  BUTH      O2            -18.8416578147       -1.6237550242       25.8889279368  BUTH      148             0.0000000000
     17062       783  BUTH      DO2           -18.8592584065       -1.5990483011       25.8908650669  BUTH      148             0.0000000000
     17063       783  BUTH      H1            -17.2768756366       -5.2477051382       24.3343554546  BUTH      148             0.0000000000
     17064       783  BUTH      H2            -16.8831813540       -4.4836423989       25.9001110575  BUTH      148             0.0000000000
     17065       783  BUTH      H3            -17.4192336577       -6.1821719074       25.8369364682  BUTH      148             0.0000000000
     17066       783  BUTH      H4            -19.2083813001       -4.5885176753       26.6560768690  BUTH      148             0.0000000000
     17067       783  BUTH      H5            -19.7031622737       -5.6059038265       25.2797401901  BUTH      148             0.0000000000
     17068       783  BUTH      H6            -20.4038349299       -3.2564749483       24.9767003709  BUTH      148             0.0000000000
     17069       783  BUTH      H7            -19.3012884406       -3.7962112091       23.7095258442  BUTH      148             0.0000000000
     17070       783  BUTH      H8            -18.3314541697       -0.9879546812       25.3632377575  BUTH      148             0.0000000000
     17071       783  BUTH      H9            -17.3720925787       -1.2015115276       24.4373232716  BUTH      148             0.0000000000
     17072       783  BUTH      LPO11         -18.0377338147       -2.0981722662       23.8925679903  BUTH      148             0.0000000000
     17073       783  BUTH      LPO12         -17.7103832270       -1.7081148790       24.3089544887  BUTH      148             0.0000000000
     17074       783  BUTH      LPO21         -19.1709452569       -1.5522529422       25.7942852786  BUTH      148             0.0000000000
     17075       783  BUTH      LPO22         -18.6466765110       -1.6558537853       26.1778084669  BUTH      148             0.0000000000
     17076       784  BUTH      C1             -9.4977498129       25.1147036139       20.5618222746  BUTH      149             0.0000000000
     17077       784  BUTH      DC1            -9.5402516220       25.1023582358       20.5645200682  BUTH      149             0.0000000000
     17078       784  BUTH      C2             -9.0966394776       23.9979040051       19.6166668911  BUTH      149             0.0000000000
     17079       784  BUTH      DC2            -9.0624334357       24.0445387156       19.5979754492  BUTH      149             0.0000000000
     17080       784  BUTH      C3            -10.3180911254       23.1873015859       19.1370497436  BUTH      149             0.0000000000
     17081       784  BUTH      DC3           -10.3489267819       23.1787123939       19.1841021913  BUTH      149             0.0000000000
     17082       784  BUTH      C4            -11.1872320305       22.6673367775       20.0424732074  BUTH      149             0.0000000000
     17083       784  BUTH      DC4           -11.1954342685       22.6683260600       20.0467153754  BUTH      149             0.0000000000
     17084       784  BUTH      O1            -12.3354974897       23.1315267422       19.9809712534  BUTH      149             0.0000000000
     17085       784  BUTH      DO1           -12.3376586170       23.0630182560       19.9960290476  BUTH      149             0.0000000000
     17086       784  BUTH      O2            -11.1917688846       21.4683579221       20.3138676585  BUTH      149             0.0000000000
     17087       784  BUTH      DO2           -11.1923347954       21.4659746620       20.3020408018  BUTH      149             0.0000000000
     17088       784  BUTH      H1            -10.1969748135       25.8206757528       20.0648225385  BUTH      149             0.0000000000
     17089       784  BUTH      H2            -10.0016054978       24.6991247593       21.4605684377  BUTH      149             0.0000000000
     17090       784  BUTH      H3             -8.6026090705       25.6800275593       20.8986499586  BUTH      149             0.0000000000
     17091       784  BUTH      H4             -8.3818212031       23.3158468793       20.1247553794  BUTH      149             0.0000000000
     17092       784  BUTH      H5             -8.5702360124       24.4162471569       18.7322408630  BUTH      149             0.0000000000
     17093       784  BUTH      H6             -9.8540197435       22.3530607808       18.5687179465  BUTH      149             0.0000000000
     17094       784  BUTH      H7            -10.7905636422       23.8425163083       18.3743018231  BUTH      149             0.0000000000
     17095       784  BUTH      H8            -12.1416809709       21.4188971972       20.5039220322  BUTH      149             0.0000000000
     17096       784  BUTH      H9            -12.9903439878       22.6605394877       20.5179145189  BUTH      149             0.0000000000
     17097       784  BUTH      LPO11         -12.3542960757       23.3711040537       19.7265123668  BUTH      149             0.0000000000
     17098       784  BUTH      LPO12         -12.5383891382       22.9815684132       20.2235562459  BUTH      149             0.0000000000
     17099       784  BUTH      LPO21         -11.1752710225       21.3048389813       20.0048541045  BUTH      149             0.0000000000
     17100       784  BUTH      LPO22         -11.0564194424       21.4472398812       20.6359461534  BUTH      149             0.0000000000
     17101       785  BUTH      C1            -16.6599502555       21.7983633518       17.7139374925  BUTH      150             0.0000000000
     17102       785  BUTH      DC1           -16.6488632336       21.8417047440       17.7052307165  BUTH      150             0.0000000000
     17103       785  BUTH      C2            -15.5530716899       22.1804612722       18.6847350501  BUTH      150             0.0000000000
     17104       785  BUTH      DC2           -15.5443090243       22.1019607357       18.6973505042  BUTH      150             0.0000000000
     17105       785  BUTH      C3            -15.7275826763       23.6166187761       19.2301466849  BUTH      150             0.0000000000
     17106       785  BUTH      DC3           -15.7311175043       23.6173095268       19.1788597527  BUTH      150             0.0000000000
     17107       785  BUTH      C4            -15.8185921850       24.6049001990       18.2945990780  BUTH      150             0.0000000000
     17108       785  BUTH      DC4           -15.8188320647       24.5918926614       18.2804271047  BUTH      150             0.0000000000
     17109       785  BUTH      O1            -16.9341193361       25.1187009627       18.1228266412  BUTH      150             0.0000000000
     17110       785  BUTH      DO1           -16.8878258900       25.1445317069       18.1028471151  BUTH      150             0.0000000000
     17111       785  BUTH      O2            -14.8470801948       25.2834783171       17.9397909410  BUTH      150             0.0000000000
     17112       785  BUTH      DO2           -14.8475390418       25.2684299235       17.9301636382  BUTH      150             0.0000000000
     17113       785  BUTH      H1            -17.6493719302       21.8690444674       18.2143072870  BUTH      150             0.0000000000
     17114       785  BUTH      H2            -16.6735308856       22.4777208733       16.8349551685  BUTH      150             0.0000000000
     17115       785  BUTH      H3            -16.5465995078       20.7557190313       17.3473785902  BUTH      150             0.0000000000
     17116       785  BUTH      H4            -14.5683552181       22.1020912500       18.1762936962  BUTH      150             0.0000000000
     17117       785  BUTH      H5            -15.5459965487       21.4659855529       19.5354967023  BUTH      150             0.0000000000
     17118       785  BUTH      H6            -14.8591829803       23.7783892216       19.9039666104  BUTH      150             0.0000000000
     17119       785  BUTH      H7            -16.5960888826       23.5747491806       19.9217136784  BUTH      150             0.0000000000
     17120       785  BUTH      H8            -15.2853361097       26.1476163266       17.8939951599  BUTH      150             0.0000000000
     17121       785  BUTH      H9            -16.9326310716       25.8964664353       17.5448650023  BUTH      150             0.0000000000
     17122       785  BUTH      LPO11         -17.1684194760       24.9703107207       18.3363302255  BUTH      150             0.0000000000
     17123       785  BUTH      LPO12         -16.9151797350       25.3662841372       17.8761611527  BUTH      150             0.0000000000
     17124       785  BUTH      LPO21         -14.6547478511       25.3236350556       18.2294384957  BUTH      150             0.0000000000
     17125       785  BUTH      LPO22         -14.8074599042       25.2127909463       17.5993008117  BUTH      150             0.0000000000
     17126       786  BUTH      C1             10.0848800974      -17.7464071512       28.7534552697  BUTH      151             0.0000000000
     17127       786  BUTH      DC1            10.0557290878      -17.7557705767       28.7098810209  BUTH      151             0.0000000000
     17128       786  BUTH      C2             10.4889644653      -18.0655399915       27.3215670807  BUTH      151             0.0000000000
     17129       786  BUTH      DC2            10.5477052803      -18.0567942848       27.3220402091  BUTH      151             0.0000000000
     17130       786  BUTH      C3              9.3516356806      -17.8432646034       26.3113120382  BUTH      151             0.0000000000
     17131       786  BUTH      DC3             9.3335941113      -17.8754389048       26.3375123646  BUTH      151             0.0000000000
     17132       786  BUTH      C4              8.1767144819      -18.4304608139       26.6576420770  BUTH      151             0.0000000000
     17133       786  BUTH      DC4             8.1901644270      -18.4357520118       26.6577346333  BUTH      151             0.0000000000
     17134       786  BUTH      O1              7.2063506056      -17.6641442414       26.7256811325  BUTH      151             0.0000000000
     17135       786  BUTH      DO1             7.2141365646      -17.7166683504       26.7048993383  BUTH      151             0.0000000000
     17136       786  BUTH      O2              7.9526491886      -19.6161520374       26.3552448671  BUTH      151             0.0000000000
     17137       786  BUTH      DO2             7.9901887900      -19.6195367110       26.3590706669  BUTH      151             0.0000000000
     17138       786  BUTH      H1              9.7498416271      -16.6911427293       28.8455814053  BUTH      151             0.0000000000
     17139       786  BUTH      H2              9.2570037630      -18.3992359211       29.1038213253  BUTH      151             0.0000000000
     17140       786  BUTH      H3             10.9430451273      -17.8898688171       29.4443188827  BUTH      151             0.0000000000
     17141       786  BUTH      H4             10.8399500690      -19.1183478348       27.2693583499  BUTH      151             0.0000000000
     17142       786  BUTH      H5             11.3454715066      -17.4182103896       27.0357680695  BUTH      151             0.0000000000
     17143       786  BUTH      H6              9.7402366534      -18.2330934552       25.3462505105  BUTH      151             0.0000000000
     17144       786  BUTH      H7              9.2927048438      -16.7453376548       26.1519239205  BUTH      151             0.0000000000
     17145       786  BUTH      H8              6.9913710049      -19.5660122409       26.2355358275  BUTH      151             0.0000000000
     17146       786  BUTH      H9              6.3628735621      -18.0959753258       26.9282382651  BUTH      151             0.0000000000
     17147       786  BUTH      LPO11           7.3059467754      -17.3377007375       26.6481231430  BUTH      151             0.0000000000
     17148       786  BUTH      LPO12           6.9191488396      -17.8424316968       26.8163934736  BUTH      151             0.0000000000
     17149       786  BUTH      LPO21           8.0568601569      -19.6452893372       26.0223919088  BUTH      151             0.0000000000
     17150       786  BUTH      LPO22           7.9701144458      -19.7909873699       26.6579453317  BUTH      151             0.0000000000
     17151       787  BUTH      C1             -2.6980033194      -15.4603874394       26.0944877027  BUTH      152             0.0000000000
     17152       787  BUTH      DC1            -2.6501220877      -15.4945022189       26.0934957463  BUTH      152             0.0000000000
     17153       787  BUTH      C2             -3.2400770504      -16.5987023109       26.9516392312  BUTH      152             0.0000000000
     17154       787  BUTH      DC2            -3.2640911442      -16.5570686683       26.9724630019  BUTH      152             0.0000000000
     17155       787  BUTH      C3             -2.1896792165      -17.6895442305       27.2745774318  BUTH      152             0.0000000000
     17156       787  BUTH      DC3            -2.1617717383      -17.6893453445       27.2202857374  BUTH      152             0.0000000000
     17157       787  BUTH      C4             -1.5162124518      -18.2090514702       26.2110227378  BUTH      152             0.0000000000
     17158       787  BUTH      DC4            -1.5000607498      -18.1994049262       26.2055883940  BUTH      152             0.0000000000
     17159       787  BUTH      O1             -0.2883925579      -17.9941042728       26.1942529815  BUTH      152             0.0000000000
     17160       787  BUTH      DO1            -0.2879388941      -18.0282540832       26.1761056049  BUTH      152             0.0000000000
     17161       787  BUTH      O2             -1.9149036421      -19.2268023847       25.6130844884  BUTH      152             0.0000000000
     17162       787  BUTH      DO2            -1.9148774125      -19.2166239497       25.6247809934  BUTH      152             0.0000000000
     17163       787  BUTH      H1             -1.8379873466      -14.9574258161       26.5861411713  BUTH      152             0.0000000000
     17164       787  BUTH      H2             -2.3698959297      -15.8301713485       25.0995372508  BUTH      152             0.0000000000
     17165       787  BUTH      H3             -3.4849013112      -14.6958695603       25.9194878081  BUTH      152             0.0000000000
     17166       787  BUTH      H4             -4.0953452967      -17.0678171235       26.4198793986  BUTH      152             0.0000000000
     17167       787  BUTH      H5             -3.6456842226      -16.1920185740       27.9026450999  BUTH      152             0.0000000000
     17168       787  BUTH      H6             -2.7615149837      -18.4794070544       27.8069697453  BUTH      152             0.0000000000
     17169       787  BUTH      H7             -1.5445716817      -17.2535406174       28.0670786112  BUTH      152             0.0000000000
     17170       787  BUTH      H8             -1.0738752397      -19.5388555021       25.2440396677  BUTH      152             0.0000000000
     17171       787  BUTH      H9              0.1851740198      -18.4245862868       25.4666672940  BUTH      152             0.0000000000
     17172       787  BUTH      LPO11          -0.1957333231      -17.8072134328       26.4752976045  BUTH      152             0.0000000000
     17173       787  BUTH      LPO12          -0.1452455166      -18.1397138968       25.9099876794  BUTH      152             0.0000000000
     17174       787  BUTH      LPO21          -1.9654448976      -19.4647188784       25.8647615107  BUTH      152             0.0000000000
     17175       787  BUTH      LPO22          -2.0698000671      -19.1058292057       25.3234768444  BUTH      152             0.0000000000
     17176       788  BUTH      C1             -2.0901902794       20.0127956583      -24.0201488472  BUTH      153             0.0000000000
     17177       788  BUTH      DC1            -2.0839540341       19.9653715697      -24.0097623201  BUTH      153             0.0000000000
     17178       788  BUTH      C2             -1.3388085898       18.6882724734      -24.0728326062  BUTH      153             0.0000000000
     17179       788  BUTH      DC2            -1.2606879031       18.7074182963      -24.1151187963  BUTH      153             0.0000000000
     17180       788  BUTH      C3             -2.2866427699       17.4849176377      -23.8808567798  BUTH      153             0.0000000000
     17181       788  BUTH      DC3            -2.2870831279       17.5104577087      -23.8616257516  BUTH      153             0.0000000000
     17182       788  BUTH      C4             -3.1026563587       17.5509604620      -22.7881747468  BUTH      153             0.0000000000
     17183       788  BUTH      DC4            -3.0879823688       17.5374089971      -22.8135266090  BUTH      153             0.0000000000
     17184       788  BUTH      O1             -4.3071272812       17.4874741917      -23.0831428253  BUTH      153             0.0000000000
     17185       788  BUTH      DO1            -4.2834270170       17.4475653492      -23.0674165447  BUTH      153             0.0000000000
     17186       788  BUTH      O2             -2.7697236542       16.9710236176      -21.7307424922  BUTH      153             0.0000000000
     17187       788  BUTH      DO2            -2.7516867488       16.9553906183      -21.7535586237  BUTH      153             0.0000000000
     17188       788  BUTH      H1             -2.8759194087       20.0483635175      -24.8048052465  BUTH      153             0.0000000000
     17189       788  BUTH      H2             -2.5940026399       20.1643115506      -23.0416106309  BUTH      153             0.0000000000
     17190       788  BUTH      H3             -1.4084286459       20.8748740912      -24.1824536547  BUTH      153             0.0000000000
     17191       788  BUTH      H4             -0.5663713691       18.6742322159      -23.2744187957  BUTH      153             0.0000000000
     17192       788  BUTH      H5             -0.8262473851       18.5905878921      -25.0536790437  BUTH      153             0.0000000000
     17193       788  BUTH      H6             -1.6263637702       16.5922583153      -23.8419726203  BUTH      153             0.0000000000
     17194       788  BUTH      H7             -2.8167807486       17.3782006265      -24.8513649988  BUTH      153             0.0000000000
     17195       788  BUTH      H8             -3.6005020658       17.0525996209      -21.2367257031  BUTH      153             0.0000000000
     17196       788  BUTH      H9             -4.9000698983       17.4818227075      -22.3167564257  BUTH      153             0.0000000000
     17197       788  BUTH      LPO11          -4.3440198517       17.4570383120      -23.4298597062  BUTH      153             0.0000000000
     17198       788  BUTH      LPO12          -4.5024730259       17.5056690583      -22.7932997871  BUTH      153             0.0000000000
     17199       788  BUTH      LPO21          -2.7762045778       16.6299910988      -21.8091951455  BUTH      153             0.0000000000
     17200       788  BUTH      LPO22          -2.5714068367       17.2030068141      -21.5594117114  BUTH      153             0.0000000000
     17201       789  BUTH      C1              0.2199160358        2.9105550907        4.4533688116  BUTH      154             0.0000000000
     17202       789  BUTH      DC1             0.2586660596        2.9059706834        4.4244615042  BUTH      154             0.0000000000
     17203       789  BUTH      C2              0.5022497714        4.1457586598        5.2910457138  BUTH      154             0.0000000000
     17204       789  BUTH      DC2             0.4332541024        4.1578079406        5.2775726288  BUTH      154             0.0000000000
     17205       789  BUTH      C3              1.8892507762        4.7490617798        4.9679660219  BUTH      154             0.0000000000
     17206       789  BUTH      DC3             1.9168535902        4.6931579537        4.9546851185  BUTH      154             0.0000000000
     17207       789  BUTH      C4              2.9353784643        3.8765945527        4.8869993551  BUTH      154             0.0000000000
     17208       789  BUTH      DC4             2.9445404556        3.8461427669        4.8504895029  BUTH      154             0.0000000000
     17209       789  BUTH      O1              3.3789054753        3.6842620816        3.7377180717  BUTH      154             0.0000000000
     17210       789  BUTH      DO1             3.4241020944        3.6472175065        3.7486761397  BUTH      154             0.0000000000
     17211       789  BUTH      O2              3.7895280888        3.7802735136        5.7653450512  BUTH      154             0.0000000000
     17212       789  BUTH      DO2             3.7949107833        3.7690903392        5.7447163021  BUTH      154             0.0000000000
     17213       789  BUTH      H1              0.3559980646        3.1107446751        3.3690594397  BUTH      154             0.0000000000
     17214       789  BUTH      H2              0.9054862495        2.0957668390        4.7702829756  BUTH      154             0.0000000000
     17215       789  BUTH      H3             -0.8200135799        2.5457759495        4.5940939788  BUTH      154             0.0000000000
     17216       789  BUTH      H4              0.4684857125        3.8661732232        6.3657610119  BUTH      154             0.0000000000
     17217       789  BUTH      H5             -0.2850103931        4.9137878536        5.1339674164  BUTH      154             0.0000000000
     17218       789  BUTH      H6              2.0552394553        5.5303364849        5.7402215456  BUTH      154             0.0000000000
     17219       789  BUTH      H7              1.7202920215        5.3235306511        4.0321458174  BUTH      154             0.0000000000
     17220       789  BUTH      H8              4.5796051298        3.9900425511        5.2431619222  BUTH      154             0.0000000000
     17221       789  BUTH      H9              4.1728428036        3.1296160756        3.7062168535  BUTH      154             0.0000000000
     17222       789  BUTH      LPO11           3.1978906714        3.8743327932        3.5061867232  BUTH      154             0.0000000000
     17223       789  BUTH      LPO12           3.6450863651        3.4572596762        3.7485643523  BUTH      154             0.0000000000
     17224       789  BUTH      LPO21           3.7574062346        4.0735947601        5.9535758478  BUTH      154             0.0000000000
     17225       789  BUTH      LPO22           3.8323396187        3.4358851258        5.8107742412  BUTH      154             0.0000000000
     17226       790  BUTH      C1             12.8297225787      -11.3158210953      -25.8984211577  BUTH      155             0.0000000000
     17227       790  BUTH      DC1            12.8150472589      -11.2412489711      -25.8719881906  BUTH      155             0.0000000000
     17228       790  BUTH      C2             11.8285801321      -10.6327632919      -24.9855991333  BUTH      155             0.0000000000
     17229       790  BUTH      DC2            11.7470382261      -10.6782366678      -24.9605484288  BUTH      155             0.0000000000
     17230       790  BUTH      C3             11.8419866668       -9.1063693477      -25.1235631405  BUTH      155             0.0000000000
     17231       790  BUTH      DC3            11.8689387859       -9.1056268925      -25.1190982268  BUTH      155             0.0000000000
     17232       790  BUTH      C4             13.0822087038       -8.5582618673      -24.9956993690  BUTH      155             0.0000000000
     17233       790  BUTH      DC4            13.0650142287       -8.5552530710      -25.0003864049  BUTH      155             0.0000000000
     17234       790  BUTH      O1             13.5179672350       -8.0490151048      -26.0394882227  BUTH      155             0.0000000000
     17235       790  BUTH      DO1            13.5257648042       -8.0241387313      -25.9918670684  BUTH      155             0.0000000000
     17236       790  BUTH      O2             13.4110414842       -7.9536431652      -23.9664220501  BUTH      155             0.0000000000
     17237       790  BUTH      DO2            13.3877604630       -7.9433355801      -23.9611553297  BUTH      155             0.0000000000
     17238       790  BUTH      H1             12.5460554745      -11.1766028905      -26.9635372395  BUTH      155             0.0000000000
     17239       790  BUTH      H2             13.8618249790      -10.9297828785      -25.7567873619  BUTH      155             0.0000000000
     17240       790  BUTH      H3             12.8596162237      -12.4110806720      -25.7144814134  BUTH      155             0.0000000000
     17241       790  BUTH      H4             12.0959292716      -10.8817796934      -23.9363916843  BUTH      155             0.0000000000
     17242       790  BUTH      H5             10.8144903267      -11.0282982852      -25.2080737048  BUTH      155             0.0000000000
     17243       790  BUTH      H6             11.1379568778       -8.7306403017      -24.3505878886  BUTH      155             0.0000000000
     17244       790  BUTH      H7             11.3332015342       -8.8958008120      -26.0885085182  BUTH      155             0.0000000000
     17245       790  BUTH      H8             14.1315902840       -7.4393660707      -24.3629425380  BUTH      155             0.0000000000
     17246       790  BUTH      H9             14.3364161747       -7.5424516058      -25.9277038090  BUTH      155             0.0000000000
     17247       790  BUTH      LPO11          13.2836259006       -8.0847085614      -26.2969957297  BUTH      155             0.0000000000
     17248       790  BUTH      LPO12          13.8364126022       -7.9150339421      -25.9834382794  BUTH      155             0.0000000000
     17249       790  BUTH      LPO21          13.1673438017       -7.7059125592      -23.9246969206  BUTH      155             0.0000000000
     17250       790  BUTH      LPO22          13.5914319785       -8.1867732114      -23.7777168538  BUTH      155             0.0000000000
     17251       791  BUTH      C1             26.1111040259      -24.6497247232      -11.3713371250  BUTH      156             0.0000000000
     17252       791  BUTH      DC1            26.1187312717      -24.6895790755      -11.3772488781  BUTH      156             0.0000000000
     17253       791  BUTH      C2             25.3208932597      -25.6171140992      -10.4981603647  BUTH      156             0.0000000000
     17254       791  BUTH      DC2            25.2987356676      -25.5581618344      -10.4495846879  BUTH      156             0.0000000000
     17255       791  BUTH      C3             25.8946051169      -27.0514809501      -10.5308344820  BUTH      156             0.0000000000
     17256       791  BUTH      DC3            25.8945085390      -27.0322988718      -10.5625370553  BUTH      156             0.0000000000
     17257       791  BUTH      C4             26.1031195207      -27.5752582610      -11.7718142407  BUTH      156             0.0000000000
     17258       791  BUTH      DC4            26.0991155797      -27.5611070572      -11.7564052167  BUTH      156             0.0000000000
     17259       791  BUTH      O1             27.2902021534      -27.7655382248      -12.0689320584  BUTH      156             0.0000000000
     17260       791  BUTH      DO1            27.2409231611      -27.7888339806      -12.0826912111  BUTH      156             0.0000000000
     17261       791  BUTH      O2             25.2685789947      -28.2924159681      -12.3408337566  BUTH      156             0.0000000000
     17262       791  BUTH      DO2            25.2693311031      -28.2865713581      -12.3214827913  BUTH      156             0.0000000000
     17263       791  BUTH      H1             27.1804862815      -24.6169970334      -11.0718851413  BUTH      156             0.0000000000
     17264       791  BUTH      H2             26.0660442956      -24.9655579718      -12.4355457416  BUTH      156             0.0000000000
     17265       791  BUTH      H3             25.7029409165      -23.6183253066      -11.3085747026  BUTH      156             0.0000000000
     17266       791  BUTH      H4             24.2702536093      -25.6451801364      -10.8582848189  BUTH      156             0.0000000000
     17267       791  BUTH      H5             25.3055383458      -25.2526460149       -9.4487566089  BUTH      156             0.0000000000
     17268       791  BUTH      H6             25.1808814539      -27.6702058501       -9.9459421558  BUTH      156             0.0000000000
     17269       791  BUTH      H7             26.8059384564      -27.0189315910       -9.8962219356  BUTH      156             0.0000000000
     17270       791  BUTH      H8             25.8614076183      -28.7099911186      -12.9851048315  BUTH      156             0.0000000000
     17271       791  BUTH      H9             27.4252985926      -28.2172744736      -12.9154805294  BUTH      156             0.0000000000
     17272       791  BUTH      LPO11          27.4970353766      -27.6680392384      -11.8039528792  BUTH      156             0.0000000000
     17273       791  BUTH      LPO12          27.3128608800      -27.8998229570      -12.3913513395  BUTH      156             0.0000000000
     17274       791  BUTH      LPO21          25.2136445774      -28.5589411306      -12.1207279921  BUTH      156             0.0000000000
     17275       791  BUTH      LPO22          25.0895157847      -28.0750032636      -12.5486030584  BUTH      156             0.0000000000
     17276       792  BUTH      C1            -17.4642229202       19.8300427129      -17.5915255314  BUTH      157             0.0000000000
     17277       792  BUTH      DC1           -17.4244185850       19.8552420588      -17.6958671669  BUTH      157             0.0000000000
     17278       792  BUTH      C2            -16.0396855897       20.0422953610      -18.0847840011  BUTH      157             0.0000000000
     17279       792  BUTH      DC2           -15.9937367626       20.1190691291      -18.0783889381  BUTH      157             0.0000000000
     17280       792  BUTH      C3            -15.8278620136       19.4904954160      -19.5072716470  BUTH      157             0.0000000000
     17281       792  BUTH      DC3           -15.8434349356       19.4699644627      -19.5239022407  BUTH      157             0.0000000000
     17282       792  BUTH      C4            -16.2556292371       18.2060223125      -19.6766119519  BUTH      157             0.0000000000
     17283       792  BUTH      DC4           -16.2466181281       18.2197512542      -19.6897581302  BUTH      157             0.0000000000
     17284       792  BUTH      O1            -17.2209522734       18.1034916117      -20.4552791885  BUTH      157             0.0000000000
     17285       792  BUTH      DO1           -17.1858561908       18.0739536878      -20.4586644299  BUTH      157             0.0000000000
     17286       792  BUTH      O2            -15.4314170159       17.2662195332      -19.7371774869  BUTH      157             0.0000000000
     17287       792  BUTH      DO2           -15.4115671884       17.2779522228      -19.7506627670  BUTH      157             0.0000000000
     17288       792  BUTH      H1            -18.2068235165       20.3243214215      -18.2537595630  BUTH      157             0.0000000000
     17289       792  BUTH      H2            -17.7255380897       18.7526195655      -17.5194509458  BUTH      157             0.0000000000
     17290       792  BUTH      H3            -17.5922351333       20.2397575005      -16.5667974374  BUTH      157             0.0000000000
     17291       792  BUTH      H4            -15.3652198847       19.5057351454      -17.3836990216  BUTH      157             0.0000000000
     17292       792  BUTH      H5            -15.7770745348       21.1211295533      -18.0464014623  BUTH      157             0.0000000000
     17293       792  BUTH      H6            -14.7397944453       19.5944397888      -19.7063332825  BUTH      157             0.0000000000
     17294       792  BUTH      H7            -16.3039884628       20.2322171085      -20.1836395462  BUTH      157             0.0000000000
     17295       792  BUTH      H8            -16.0405335066       16.5880727246      -20.0688309307  BUTH      157             0.0000000000
     17296       792  BUTH      H9            -17.4528460574       17.1928282304      -20.6916654835  BUTH      157             0.0000000000
     17297       792  BUTH      LPO11         -17.3122058870       18.4194398873      -20.5750684416  BUTH      157             0.0000000000
     17298       792  BUTH      LPO12         -17.3154111104       17.7678180970      -20.4852928462  BUTH      157             0.0000000000
     17299       792  BUTH      LPO21         -15.2417171047       17.3298359737      -20.0243479802  BUTH      157             0.0000000000
     17300       792  BUTH      LPO22         -15.3895687216       17.1603336748      -19.4062138858  BUTH      157             0.0000000000
     17301       793  BUTH      C1             -9.6542220393       19.1805484116        2.0670861662  BUTH      158             0.0000000000
     17302       793  BUTH      DC1            -9.6396357777       19.1525648848        2.0557767289  BUTH      158             0.0000000000
     17303       793  BUTH      C2            -10.8551254602       18.4735078854        1.4520905164  BUTH      158             0.0000000000
     17304       793  BUTH      DC2           -10.8882085529       18.5266948413        1.5062036824  BUTH      158             0.0000000000
     17305       793  BUTH      C3            -10.5469321961       17.0536960871        0.9330204849  BUTH      158             0.0000000000
     17306       793  BUTH      DC3           -10.5087108213       17.0905888735        0.9220515953  BUTH      158             0.0000000000
     17307       793  BUTH      C4             -9.4942563813       16.9847400858        0.0760247553  BUTH      158             0.0000000000
     17308       793  BUTH      DC4            -9.4960339931       16.9925117791        0.0883052975  BUTH      158             0.0000000000
     17309       793  BUTH      O1             -8.5192600746       16.3324684274        0.4682578620  BUTH      158             0.0000000000
     17310       793  BUTH      DO1            -8.5310759631       16.3467630327        0.4182705391  BUTH      158             0.0000000000
     17311       793  BUTH      O2             -9.5983429996       17.1435802131       -1.1409762482  BUTH      158             0.0000000000
     17312       793  BUTH      DO2            -9.6009721508       17.1462832308       -1.1278772459  BUTH      158             0.0000000000
     17313       793  BUTH      H1             -9.2559873930       18.6050237370        2.9299311788  BUTH      158             0.0000000000
     17314       793  BUTH      H2             -8.8402895331       19.3026869939        1.3208174197  BUTH      158             0.0000000000
     17315       793  BUTH      H3             -9.9264699612       20.1959011647        2.4266148252  BUTH      158             0.0000000000
     17316       793  BUTH      H4            -11.2171423567       19.0702677589        0.5877165117  BUTH      158             0.0000000000
     17317       793  BUTH      H5            -11.6835485004       18.4141685476        2.1900031884  BUTH      158             0.0000000000
     17318       793  BUTH      H6            -11.4831028703       16.7096445281        0.4435983830  BUTH      158             0.0000000000
     17319       793  BUTH      H7            -10.4579637507       16.4054172409        1.8308735650  BUTH      158             0.0000000000
     17320       793  BUTH      H8             -8.8083465246       16.6462900124       -1.4046199961  BUTH      158             0.0000000000
     17321       793  BUTH      H9             -7.7959256861       16.2578409237       -0.1721943987  BUTH      158             0.0000000000
     17322       793  BUTH      LPO11          -8.5820803472       16.2035561733        0.7875308550  BUTH      158             0.0000000000
     17323       793  BUTH      LPO12          -8.2677198057       16.3351271727        0.2249053928  BUTH      158             0.0000000000
     17324       793  BUTH      LPO21          -9.8512633134       16.9226129708       -1.2394891544  BUTH      158             0.0000000000
     17325       793  BUTH      LPO22          -9.4917900944       17.4719603978       -1.1985343291  BUTH      158             0.0000000000
     17326       794  BUTH      C1              8.4528899868       -7.9332643420       24.3426096849  BUTH      159             0.0000000000
     17327       794  BUTH      DC1             8.4954076110       -8.0275944329       24.2885646575  BUTH      159             0.0000000000
     17328       794  BUTH      C2              8.9231365134       -8.7243920947       23.1413022527  BUTH      159             0.0000000000
     17329       794  BUTH      DC2             8.9307749344       -8.7090565084       23.0529112989  BUTH      159             0.0000000000
     17330       794  BUTH      C3              8.7296018806      -10.2144243530       23.4449998315  BUTH      159             0.0000000000
     17331       794  BUTH      DC3             8.7632949360      -10.2393991393       23.4662972307  BUTH      159             0.0000000000
     17332       794  BUTH      C4              9.3172752485      -10.5575107086       24.6231253919  BUTH      159             0.0000000000
     17333       794  BUTH      DC4             9.3307230871      -10.5672844918       24.6038800646  BUTH      159             0.0000000000
     17334       794  BUTH      O1              8.5759781645      -11.1107156840       25.4423728070  BUTH      159             0.0000000000
     17335       794  BUTH      DO1             8.6607798815      -11.1412428429       25.4240255170  BUTH      159             0.0000000000
     17336       794  BUTH      O2             10.4235509901      -11.0792796829       24.6210544023  BUTH      159             0.0000000000
     17337       794  BUTH      DO2            10.4249197994      -11.1016930073       24.5912695936  BUTH      159             0.0000000000
     17338       794  BUTH      H1              7.3661176250       -8.0892454705       24.5126588574  BUTH      159             0.0000000000
     17339       794  BUTH      H2              8.9733634119       -8.2113362159       25.2839408959  BUTH      159             0.0000000000
     17340       794  BUTH      H3              8.6082246638       -6.8397933325       24.2221385676  BUTH      159             0.0000000000
     17341       794  BUTH      H4              9.9943054730       -8.5010634898       22.9488382426  BUTH      159             0.0000000000
     17342       794  BUTH      H5              8.3433814970       -8.4271742220       22.2413763352  BUTH      159             0.0000000000
     17343       794  BUTH      H6              9.1462574274      -10.7607613106       22.5719390747  BUTH      159             0.0000000000
     17344       794  BUTH      H7              7.6343559180      -10.3944659420       23.3966024396  BUTH      159             0.0000000000
     17345       794  BUTH      H8             10.3097842243      -11.4562461491       25.5075381339  BUTH      159             0.0000000000
     17346       794  BUTH      H9              9.0147967001      -11.3989396190       26.2568212437  BUTH      159             0.0000000000
     17347       794  BUTH      LPO11           8.2535648561      -11.1422620299       25.3098794614  BUTH      159             0.0000000000
     17348       794  BUTH      LPO12           8.7547559599      -11.1863596700       25.7336055099  BUTH      159             0.0000000000
     17349       794  BUTH      LPO21          10.3912199347      -11.3629619881       24.4186215676  BUTH      159             0.0000000000
     17350       794  BUTH      LPO22          10.6485258777      -10.8184615893       24.6831850873  BUTH      159             0.0000000000
     17351       795  BUTH      C1             23.5982347137       -6.6890663936      -19.3472314975  BUTH      160             0.0000000000
     17352       795  BUTH      DC1            23.5372030453       -6.6665561875      -19.3720522260  BUTH      160             0.0000000000
     17353       795  BUTH      C2             23.6119050313       -7.8022902994      -20.3584145544  BUTH      160             0.0000000000
     17354       795  BUTH      DC2            23.6260062637       -7.7594367247      -20.3684429760  BUTH      160             0.0000000000
     17355       795  BUTH      C3             22.3071581754       -7.8811365533      -21.1617652354  BUTH      160             0.0000000000
     17356       795  BUTH      DC3            22.2277183285       -7.8529400971      -21.1189939246  BUTH      160             0.0000000000
     17357       795  BUTH      C4             21.2054084460       -7.7142181466      -20.3856469479  BUTH      160             0.0000000000
     17358       795  BUTH      DC4            21.1673742516       -7.6960309380      -20.3629255576  BUTH      160             0.0000000000
     17359       795  BUTH      O1             20.4728680622       -6.7556590553      -20.7052343594  BUTH      160             0.0000000000
     17360       795  BUTH      DO1            20.4228920034       -6.7845582271      -20.6888540525  BUTH      160             0.0000000000
     17361       795  BUTH      O2             20.5725052704       -8.6717000274      -19.9139200579  BUTH      160             0.0000000000
     17362       795  BUTH      DO2            20.5548653267       -8.6700568814      -19.9017742228  BUTH      160             0.0000000000
     17363       795  BUTH      H1             23.5225253708       -5.6968366953      -19.8412652222  BUTH      160             0.0000000000
     17364       795  BUTH      H2             22.7618470273       -6.8195189458      -18.6276769329  BUTH      160             0.0000000000
     17365       795  BUTH      H3             24.5372605932       -6.7266309756      -18.7546605729  BUTH      160             0.0000000000
     17366       795  BUTH      H4             23.7635373559       -8.7563746722      -19.8097328182  BUTH      160             0.0000000000
     17367       795  BUTH      H5             24.4774142794       -7.6817347582      -21.0444765803  BUTH      160             0.0000000000
     17368       795  BUTH      H6             22.3619293228       -8.8666935396      -21.6716657637  BUTH      160             0.0000000000
     17369       795  BUTH      H7             22.4170499694       -7.1444933313      -21.9861447336  BUTH      160             0.0000000000
     17370       795  BUTH      H8             19.7073691535       -8.3942042642      -20.2536782084  BUTH      160             0.0000000000
     17371       795  BUTH      H9             19.6432531467       -6.7029511527      -20.2073167266  BUTH      160             0.0000000000
     17372       795  BUTH      LPO11          20.6068326038       -6.5900087735      -20.9829275097  BUTH      160             0.0000000000
     17373       795  BUTH      LPO12          20.1983780232       -6.7374259690      -20.4888486550  BUTH      160             0.0000000000
     17374       795  BUTH      LPO21          20.6444830366       -8.9416707466      -20.1247161962  BUTH      160             0.0000000000
     17375       795  BUTH      LPO22          20.5376965455       -8.5993883264      -19.5732451827  BUTH      160             0.0000000000
     17376       796  BUTH      C1              3.1408409087       24.0535414900       10.0713283665  BUTH      161             0.0000000000
     17377       796  BUTH      DC1             3.1634295406       24.0874752870       10.0342549900  BUTH      161             0.0000000000
     17378       796  BUTH      C2              3.5908830690       25.4811312925        9.7819863203  BUTH      161             0.0000000000
     17379       796  BUTH      DC2             3.5281334943       25.5207626947        9.7917713961  BUTH      161             0.0000000000
     17380       796  BUTH      C3              4.4569141767       25.5663386038        8.5092681557  BUTH      161             0.0000000000
     17381       796  BUTH      DC3             4.4843267724       25.5417779092        8.5055559885  BUTH      161             0.0000000000
     17382       796  BUTH      C4              5.4686638744       24.6518429209        8.4576749465  BUTH      161             0.0000000000
     17383       796  BUTH      DC4             5.4764849323       24.6855638692        8.4579121126  BUTH      161             0.0000000000
     17384       796  BUTH      O1              5.4724502796       23.9810131455        7.4240484158  BUTH      161             0.0000000000
     17385       796  BUTH      DO1             5.5463766574       24.0362303430        7.4590293113  BUTH      161             0.0000000000
     17386       796  BUTH      O2              6.6247931324       24.9394826930        8.7478410828  BUTH      161             0.0000000000
     17387       796  BUTH      DO2             6.6466380708       24.9744796204        8.7272879883  BUTH      161             0.0000000000
     17388       796  BUTH      H1              2.5075416073       23.6586963131        9.2483154376  BUTH      161             0.0000000000
     17389       796  BUTH      H2              4.0071007076       23.3678499737       10.1885551007  BUTH      161             0.0000000000
     17390       796  BUTH      H3              2.5573196235       23.9936406453       11.0148514446  BUTH      161             0.0000000000
     17391       796  BUTH      H4              4.1793835385       25.8513215038       10.6485585368  BUTH      161             0.0000000000
     17392       796  BUTH      H5              2.7147994304       26.1542011031        9.6646172946  BUTH      161             0.0000000000
     17393       796  BUTH      H6              4.8199961752       26.6160007940        8.4827776123  BUTH      161             0.0000000000
     17394       796  BUTH      H7              3.7377389854       25.5044841044        7.6647078761  BUTH      161             0.0000000000
     17395       796  BUTH      H8              6.9587731934       24.1428526079        8.3065499924  BUTH      161             0.0000000000
     17396       796  BUTH      H9              6.2257692772       23.3768862513        7.3434122978  BUTH      161             0.0000000000
     17397       796  BUTH      LPO11           5.2073843675       24.0783021859        7.2172274670  BUTH      161             0.0000000000
     17398       796  BUTH      LPO12           5.7382518601       23.7533871942        7.4300439184  BUTH      161             0.0000000000
     17399       796  BUTH      LPO21           6.7173268226       25.1914221941        8.5231991367  BUTH      161             0.0000000000
     17400       796  BUTH      LPO22           6.6596715013       24.8555772368        9.0858401565  BUTH      161             0.0000000000
     17401       797  BUTH      C1             -3.5264377550       13.3094188395        4.6463088335  BUTH      162             0.0000000000
     17402       797  BUTH      DC1            -3.4883264137       13.3161286639        4.6713343887  BUTH      162             0.0000000000
     17403       797  BUTH      C2             -3.4682909596       12.2078037704        5.7010480987  BUTH      162             0.0000000000
     17404       797  BUTH      DC2            -3.4537322358       12.1445812388        5.6351702191  BUTH      162             0.0000000000
     17405       797  BUTH      C3             -3.9998061771       12.6764066943        7.0748438626  BUTH      162             0.0000000000
     17406       797  BUTH      DC3            -3.9258114300       12.7129247379        7.0469442933  BUTH      162             0.0000000000
     17407       797  BUTH      C4             -3.3557877245       13.7383367992        7.6193152938  BUTH      162             0.0000000000
     17408       797  BUTH      DC4            -3.3438720923       13.7389212377        7.6174778557  BUTH      162             0.0000000000
     17409       797  BUTH      O1             -3.8688295633       14.8623645645        7.5575092823  BUTH      162             0.0000000000
     17410       797  BUTH      DO1            -3.8088925477       14.8597737387        7.5900423201  BUTH      162             0.0000000000
     17411       797  BUTH      O2             -2.3395906665       13.6450841650        8.2911274709  BUTH      162             0.0000000000
     17412       797  BUTH      DO2            -2.3344583851       13.6276530679        8.2995088821  BUTH      162             0.0000000000
     17413       797  BUTH      H1             -4.5709829488       13.6678599897        4.5247922511  BUTH      162             0.0000000000
     17414       797  BUTH      H2             -2.9207466681       14.1923519842        4.9427685626  BUTH      162             0.0000000000
     17415       797  BUTH      H3             -3.1711583454       12.9472555056        3.6579084788  BUTH      162             0.0000000000
     17416       797  BUTH      H4             -2.4236633461       11.8459736318        5.8112892012  BUTH      162             0.0000000000
     17417       797  BUTH      H5             -4.0930115952       11.3523522362        5.3660140705  BUTH      162             0.0000000000
     17418       797  BUTH      H6             -3.9475204330       11.7922149538        7.7455093284  BUTH      162             0.0000000000
     17419       797  BUTH      H7             -5.0909521052       12.8417842375        6.9468914022  BUTH      162             0.0000000000
     17420       797  BUTH      H8             -2.2840007914       14.5905930029        8.5004664385  BUTH      162             0.0000000000
     17421       797  BUTH      H9             -3.3789952552       15.5599194062        8.0184220652  BUTH      162             0.0000000000
     17422       797  BUTH      LPO11          -4.1757774226       14.8448183557        7.3902515704  BUTH      162             0.0000000000
     17423       797  BUTH      LPO12          -3.6611681695       15.0974383424        7.7128059805  BUTH      162             0.0000000000
     17424       797  BUTH      LPO21          -2.4448120733       13.5126664894        8.5975487736  BUTH      162             0.0000000000
     17425       797  BUTH      LPO22          -2.0798641954       13.6104263587        8.0590908431  BUTH      162             0.0000000000
     17426       798  BUTH      C1              1.2569285944       14.2946397237        0.4466262848  BUTH      163             0.0000000000
     17427       798  BUTH      DC1             1.2407857003       14.2671163070        0.4559625265  BUTH      163             0.0000000000
     17428       798  BUTH      C2              0.6535876441       13.1909682989       -0.4075461018  BUTH      163             0.0000000000
     17429       798  BUTH      DC2             0.6749515506       13.2305334828       -0.4866375333  BUTH      163             0.0000000000
     17430       798  BUTH      C3             -0.4394171956       12.3767796822        0.3209164719  BUTH      163             0.0000000000
     17431       798  BUTH      DC3            -0.3968450791       12.3779516951        0.3421815018  BUTH      163             0.0000000000
     17432       798  BUTH      C4             -0.0117637985       11.7131871856        1.4284599943  BUTH      163             0.0000000000
     17433       798  BUTH      DC4            -0.0155907377       11.7211952347        1.4158153132  BUTH      163             0.0000000000
     17434       798  BUTH      O1             -0.5424935900       12.0604113374        2.4895859669  BUTH      163             0.0000000000
     17435       798  BUTH      DO1            -0.5162754027       12.0048668792        2.4739406298  BUTH      163             0.0000000000
     17436       798  BUTH      O2              0.3368055210       10.5341104782        1.4043663202  BUTH      163             0.0000000000
     17437       798  BUTH      DO2             0.3309954746       10.5307091959        1.3933773595  BUTH      163             0.0000000000
     17438       798  BUTH      H1              0.4771580638       15.0269621703        0.7465975409  BUTH      163             0.0000000000
     17439       798  BUTH      H2              1.7182544280       13.8788466254        1.3678296145  BUTH      163             0.0000000000
     17440       798  BUTH      H3              2.0404934323       14.8527674366       -0.1091080068  BUTH      163             0.0000000000
     17441       798  BUTH      H4              1.4538776870       12.4992815762       -0.7472906011  BUTH      163             0.0000000000
     17442       798  BUTH      H5              0.2200008186       13.6722975873       -1.3101232903  BUTH      163             0.0000000000
     17443       798  BUTH      H6             -0.8404759291       11.6585089872       -0.4257830000  BUTH      163             0.0000000000
     17444       798  BUTH      H7             -1.2834294427       13.0791495013        0.4901528863  BUTH      163             0.0000000000
     17445       798  BUTH      H8              0.1555833823       10.3753211330        2.3439643620  BUTH      163             0.0000000000
     17446       798  BUTH      H9             -0.2915319503       11.5318231664        3.2619678678  BUTH      163             0.0000000000
     17447       798  BUTH      LPO11          -0.7749109336       12.3151013313        2.4294595550  BUTH      163             0.0000000000
     17448       798  BUTH      LPO12          -0.4128611303       11.8729672277        2.7552175372  BUTH      163             0.0000000000
     17449       798  BUTH      LPO21           0.0714584833       10.3632721809        1.2530215952  BUTH      163             0.0000000000
     17450       798  BUTH      LPO22           0.6867053598       10.5421146016        1.4019093317  BUTH      163             0.0000000000
     17451       799  BUTH      C1              6.6626822841      -25.1152378507       -5.2798223657  BUTH      164             0.0000000000
     17452       799  BUTH      DC1             6.6492573340      -25.0523490565       -5.3010571406  BUTH      164             0.0000000000
     17453       799  BUTH      C2              5.3649625286      -24.3252984673       -5.2882864899  BUTH      164             0.0000000000
     17454       799  BUTH      DC2             5.3320604271      -24.3539123286       -5.2674498171  BUTH      164             0.0000000000
     17455       799  BUTH      C3              5.3346771855      -23.3232320923       -6.4493624838  BUTH      164             0.0000000000
     17456       799  BUTH      DC3             5.3873433201      -23.2945824288       -6.4548284588  BUTH      164             0.0000000000
     17457       799  BUTH      C4              6.4120012405      -22.4989471464       -6.5495435019  BUTH      164             0.0000000000
     17458       799  BUTH      DC4             6.4231700997      -22.4906382874       -6.5442577752  BUTH      164             0.0000000000
     17459       799  BUTH      O1              7.0393705927      -22.5556852117       -7.6176926674  BUTH      164             0.0000000000
     17460       799  BUTH      DO1             7.0295077129      -22.4822542868       -7.5893551714  BUTH      164             0.0000000000
     17461       799  BUTH      O2              6.4175434166      -21.3687481995       -6.0839646736  BUTH      164             0.0000000000
     17462       799  BUTH      DO2             6.4230603828      -21.3646024401       -6.0792730238  BUTH      164             0.0000000000
     17463       799  BUTH      H1              6.7973286107      -25.6838158050       -6.2247617703  BUTH      164             0.0000000000
     17464       799  BUTH      H2              7.5561278159      -24.4676112984       -5.1507645084  BUTH      164             0.0000000000
     17465       799  BUTH      H3              6.6540090834      -25.8504162700       -4.4469007208  BUTH      164             0.0000000000
     17466       799  BUTH      H4              5.2385328185      -23.7823989664       -4.3272471253  BUTH      164             0.0000000000
     17467       799  BUTH      H5              4.5036480915      -25.0208997257       -5.3810082895  BUTH      164             0.0000000000
     17468       799  BUTH      H6              4.3882980633      -22.7579889778       -6.3108425238  BUTH      164             0.0000000000
     17469       799  BUTH      H7              5.1582864167      -23.9532242248       -7.3473141583  BUTH      164             0.0000000000
     17470       799  BUTH      H8              6.9735467854      -21.0141432992       -6.7953124215  BUTH      164             0.0000000000
     17471       799  BUTH      H9              7.7506987570      -21.9032796938       -7.7033681195  BUTH      164             0.0000000000
     17472       799  BUTH      LPO11           6.8911182603      -22.7899822767       -7.8312954091  BUTH      164             0.0000000000
     17473       799  BUTH      LPO12           7.3087467480      -22.3323423500       -7.6103134364  BUTH      164             0.0000000000
     17474       799  BUTH      LPO21           6.1046855637      -21.2343550436       -6.1649488915  BUTH      164             0.0000000000
     17475       799  BUTH      LPO22           6.6433076762      -21.3804273961       -5.8167679381  BUTH      164             0.0000000000
     17476       800  BUTH      C1            -27.4496327656      -27.0330588943      -26.6048142319  BUTH      165             0.0000000000
     17477       800  BUTH      DC1           -27.4472256743      -27.0318701351      -26.5693679504  BUTH      165             0.0000000000
     17478       800  BUTH      C2            -26.2754039441      -26.4935496494      -25.8035208836  BUTH      165             0.0000000000
     17479       800  BUTH      DC2           -26.2197257618      -26.5413990754      -25.8523308019  BUTH      165             0.0000000000
     17480       800  BUTH      C3            -26.6370392149      -26.2800015081      -24.3223142446  BUTH      165             0.0000000000
     17481       800  BUTH      DC3           -26.6460416316      -26.2878414874      -24.3426717737  BUTH      165             0.0000000000
     17482       800  BUTH      C4            -27.7257044920      -25.5008458888      -24.0590249760  BUTH      165             0.0000000000
     17483       800  BUTH      DC4           -27.7074265396      -25.5384136627      -24.0639818082  BUTH      165             0.0000000000
     17484       800  BUTH      O1            -28.6439525525      -26.0957964058      -23.4697093484  BUTH      165             0.0000000000
     17485       800  BUTH      DO1           -28.6303671302      -26.0537179295      -23.4630937671  BUTH      165             0.0000000000
     17486       800  BUTH      O2            -27.5973303225      -24.2998705513      -23.8398254805  BUTH      165             0.0000000000
     17487       800  BUTH      DO2           -27.5938545083      -24.3473098219      -23.8319402860  BUTH      165             0.0000000000
     17488       800  BUTH      H1            -27.8219062571      -27.9877046003      -26.1754134593  BUTH      165             0.0000000000
     17489       800  BUTH      H2            -28.2930850094      -26.3099800334      -26.5966734587  BUTH      165             0.0000000000
     17490       800  BUTH      H3            -27.1663766842      -27.2063946411      -27.6650225653  BUTH      165             0.0000000000
     17491       800  BUTH      H4            -25.9641150686      -25.5153304388      -26.2283825252  BUTH      165             0.0000000000
     17492       800  BUTH      H5            -25.4044546363      -27.1796161825      -25.8748021287  BUTH      165             0.0000000000
     17493       800  BUTH      H6            -25.7115403337      -25.8051393503      -23.9320851422  BUTH      165             0.0000000000
     17494       800  BUTH      H7            -26.6550487283      -27.2857777269      -23.8507096908  BUTH      165             0.0000000000
     17495       800  BUTH      H8            -28.4620247983      -24.0696431964      -23.4653941402  BUTH      165             0.0000000000
     17496       800  BUTH      H9            -29.3802693947      -25.5304897168      -23.1918121458  BUTH      165             0.0000000000
     17497       800  BUTH      LPO11         -28.5535061285      -26.4290872390      -23.4128176541  BUTH      165             0.0000000000
     17498       800  BUTH      LPO12         -28.9112975908      -25.8771215751      -23.4130705902  BUTH      165             0.0000000000
     17499       800  BUTH      LPO21         -27.3995254207      -24.2838069693      -23.5515284424  BUTH      165             0.0000000000
     17500       800  BUTH      LPO22         -27.6249904632      -24.1496136233      -24.1547187516  BUTH      165             0.0000000000
     17501       801  BUTH      C1            -28.1898153913       -6.7021827165       24.5577272223  BUTH      166             0.0000000000
     17502       801  BUTH      DC1           -28.1927116408       -6.7278913267       24.5695281331  BUTH      166             0.0000000000
     17503       801  BUTH      C2            -26.7931884171       -6.7651572850       25.1720066054  BUTH      166             0.0000000000
     17504       801  BUTH      DC2           -26.7939300896       -6.6818577485       25.1289912069  BUTH      166             0.0000000000
     17505       801  BUTH      C3            -26.2681466224       -8.2056174776       25.3833438687  BUTH      166             0.0000000000
     17506       801  BUTH      DC3           -26.3482984597       -8.1981505632       25.3945220464  BUTH      166             0.0000000000
     17507       801  BUTH      C4            -27.0972566923       -9.0397812076       26.0685355062  BUTH      166             0.0000000000
     17508       801  BUTH      DC4           -27.1071022320       -9.0381554179       26.0657771360  BUTH      166             0.0000000000
     17509       801  BUTH      O1            -27.7107125503       -9.9037825219       25.4196830655  BUTH      166             0.0000000000
     17510       801  BUTH      DO1           -27.7132056296       -9.9116989227       25.4756614907  BUTH      166             0.0000000000
     17511       801  BUTH      O2            -27.0895480225       -9.1748598897       27.2979486938  BUTH      166             0.0000000000
     17512       801  BUTH      DO2           -27.0934926616       -9.1737708193       27.2941102920  BUTH      166             0.0000000000
     17513       801  BUTH      H1            -28.2209751005       -7.2313757553       23.5813539319  BUTH      166             0.0000000000
     17514       801  BUTH      H2            -28.9382735566       -7.1804322993       25.2251166961  BUTH      166             0.0000000000
     17515       801  BUTH      H3            -28.5068044691       -5.6509363873       24.3882572276  BUTH      166             0.0000000000
     17516       801  BUTH      H4            -26.8049914421       -6.2537420478       26.1582297768  BUTH      166             0.0000000000
     17517       801  BUTH      H5            -26.0665282751       -6.2230785569       24.5297942640  BUTH      166             0.0000000000
     17518       801  BUTH      H6            -25.2893538409       -8.0917033109       25.8964805499  BUTH      166             0.0000000000
     17519       801  BUTH      H7            -25.9905178053       -8.5836569416       24.3762046505  BUTH      166             0.0000000000
     17520       801  BUTH      H8            -27.5629673959      -10.0209893669       27.3269142718  BUTH      166             0.0000000000
     17521       801  BUTH      H9            -28.2396127812      -10.5120448843       25.9574957142  BUTH      166             0.0000000000
     17522       801  BUTH      LPO11         -27.6287158751       -9.8792843300       25.0803066022  BUTH      166             0.0000000000
     17523       801  BUTH      LPO12         -27.9109133095      -10.0947612887       25.6340350346  BUTH      166             0.0000000000
     17524       801  BUTH      LPO21         -26.7642907199       -9.2780033735       27.3758531795  BUTH      166             0.0000000000
     17525       801  BUTH      LPO22         -27.3367565097       -8.9563694148       27.4147813783  BUTH      166             0.0000000000
     17526       802  BUTH      C1             26.7956764923      -27.2183480577        9.5684586534  BUTH      167             0.0000000000
     17527       802  BUTH      DC1            26.7396721546      -27.2053944843        9.5848392548  BUTH      167             0.0000000000
     17528       802  BUTH      C2             28.2627261877      -27.0021741903        9.9208714905  BUTH      167             0.0000000000
     17529       802  BUTH      DC2            28.2264057730      -27.0879240485        9.9117613904  BUTH      167             0.0000000000
     17530       802  BUTH      C3             28.5518351966      -25.6649090651       10.6506140430  BUTH      167             0.0000000000
     17531       802  BUTH      DC3            28.5108123419      -25.6902677682       10.6105079400  BUTH      167             0.0000000000
     17532       802  BUTH      C4             28.1948465559      -24.4974577002       10.0409134734  BUTH      167             0.0000000000
     17533       802  BUTH      DC4            28.1900854604      -24.5288417885       10.0577417125  BUTH      167             0.0000000000
     17534       802  BUTH      O1             27.0931972813      -24.0253603854       10.3639068665  BUTH      167             0.0000000000
     17535       802  BUTH      DO1            27.1146496850      -24.0142022642       10.3367788432  BUTH      167             0.0000000000
     17536       802  BUTH      O2             28.9624958624      -23.8172267750        9.3482258240  BUTH      167             0.0000000000
     17537       802  BUTH      DO2            28.9595974041      -23.8354125546        9.3683762826  BUTH      167             0.0000000000
     17538       802  BUTH      H1             26.1552658585      -27.1981080799       10.4760849880  BUTH      167             0.0000000000
     17539       802  BUTH      H2             26.4740819194      -26.3883180625        8.9036668513  BUTH      167             0.0000000000
     17540       802  BUTH      H3             26.6467415910      -28.1742248124        9.0221629224  BUTH      167             0.0000000000
     17541       802  BUTH      H4             28.8671011377      -27.0228413628        8.9888710672  BUTH      167             0.0000000000
     17542       802  BUTH      H5             28.6204351680      -27.8406224697       10.5559854711  BUTH      167             0.0000000000
     17543       802  BUTH      H6             29.6462816745      -25.6733507504       10.8414978983  BUTH      167             0.0000000000
     17544       802  BUTH      H7             28.1100996693      -25.7748946111       11.6640704572  BUTH      167             0.0000000000
     17545       802  BUTH      H8             28.3534502477      -23.1066446541        9.0932032980  BUTH      167             0.0000000000
     17546       802  BUTH      H9             26.9078070587      -23.1485533860        9.9953950605  BUTH      167             0.0000000000
     17547       802  BUTH      LPO11          26.9392973901      -24.2318800586       10.6008972632  BUTH      167             0.0000000000
     17548       802  BUTH      LPO12          27.0346184381      -23.7277857438       10.1892132725  BUTH      167             0.0000000000
     17549       802  BUTH      LPO21          29.1650155334      -23.6483166253        9.5783456713  BUTH      167             0.0000000000
     17550       802  BUTH      LPO22          28.9880876275      -23.9911659654        9.0455870631  BUTH      167             0.0000000000
     17551       803  BUTH      C1             20.7275040027       14.9762959160       15.3031944204  BUTH      168             0.0000000000
     17552       803  BUTH      DC1            20.7014978838       15.0069463866       15.3498429092  BUTH      168             0.0000000000
     17553       803  BUTH      C2             20.7982903240       16.3256572158       15.9960168058  BUTH      168             0.0000000000
     17554       803  BUTH      DC2            20.8588890433       16.3536146886       15.9689150631  BUTH      168             0.0000000000
     17555       803  BUTH      C3             20.1935126907       16.3013567089       17.4114200561  BUTH      168             0.0000000000
     17556       803  BUTH      DC3            20.1792849327       16.2750832910       17.4043805214  BUTH      168             0.0000000000
     17557       803  BUTH      C4             18.9295304499       15.7987821990       17.4893676337  BUTH      168             0.0000000000
     17558       803  BUTH      DC4            18.9488730673       15.8030189639       17.4893681901  BUTH      168             0.0000000000
     17559       803  BUTH      O1             18.8399248463       14.7441042077       18.1343311435  BUTH      168             0.0000000000
     17560       803  BUTH      DO1            18.8083418929       14.7881706106       18.1368998009  BUTH      168             0.0000000000
     17561       803  BUTH      O2             17.9469608572       16.5387509188       17.5618433059  BUTH      168             0.0000000000
     17562       803  BUTH      DO2            17.9659775620       16.5404284199       17.5707102239  BUTH      168             0.0000000000
     17563       803  BUTH      H1             21.3089224156       14.2345423726       15.8914760803  BUTH      168             0.0000000000
     17564       803  BUTH      H2             19.6843767467       14.6072409861       15.2031694871  BUTH      168             0.0000000000
     17565       803  BUTH      H3             21.1775812753       15.0005138028       14.2877315000  BUTH      168             0.0000000000
     17566       803  BUTH      H4             20.2536075997       17.0769196169       15.3850777450  BUTH      168             0.0000000000
     17567       803  BUTH      H5             21.8598929400       16.6445760336       16.0709279085  BUTH      168             0.0000000000
     17568       803  BUTH      H6             20.2441815420       17.3520442292       17.7689244656  BUTH      168             0.0000000000
     17569       803  BUTH      H7             20.9444486752       15.7749632649       18.0385772049  BUTH      168             0.0000000000
     17570       803  BUTH      H8             17.3306919539       15.9009023083       17.9546050515  BUTH      168             0.0000000000
     17571       803  BUTH      H9             17.9325947846       14.4389555524       18.2846556499  BUTH      168             0.0000000000
     17572       803  BUTH      LPO11          19.1552068624       14.6492464135       18.2530714029  BUTH      168             0.0000000000
     17573       803  BUTH      LPO12          18.5073351277       14.6352464730       18.1401683226  BUTH      168             0.0000000000
     17574       803  BUTH      LPO21          18.0105115661       16.7464048861       17.8363267067  BUTH      168             0.0000000000
     17575       803  BUTH      LPO22          17.8233931479       16.5568471774       17.2348822277  BUTH      168             0.0000000000
     17576       804  BUTH      C1             11.0613507553      -18.9802516568      -17.7781861140  BUTH      169             0.0000000000
     17577       804  BUTH      DC1            10.9874447469      -18.9282162616      -17.6974867550  BUTH      169             0.0000000000
     17578       804  BUTH      C2             11.0570155601      -18.6703849592      -16.2900277270  BUTH      169             0.0000000000
     17579       804  BUTH      DC2            11.0644688967      -18.6859019167      -16.2331425063  BUTH      169             0.0000000000
     17580       804  BUTH      C3              9.6336719099      -18.4373113233      -15.7758969580  BUTH      169             0.0000000000
     17581       804  BUTH      DC3             9.5585347093      -18.4014064056      -15.7828980290  BUTH      169             0.0000000000
     17582       804  BUTH      C4              8.9351412132      -17.5770911156      -16.5671828190  BUTH      169             0.0000000000
     17583       804  BUTH      DC4             8.9241569020      -17.5522650667      -16.5569882520  BUTH      169             0.0000000000
     17584       804  BUTH      O1              7.8562460927      -18.0396634556      -16.9597403011  BUTH      169             0.0000000000
     17585       804  BUTH      DO1             7.8493691754      -17.9506161472      -16.9195064699  BUTH      169             0.0000000000
     17586       804  BUTH      O2              8.7384722308      -16.4114178931      -16.2241891811  BUTH      169             0.0000000000
     17587       804  BUTH      DO2             8.7390680203      -16.3816931526      -16.2081817548  BUTH      169             0.0000000000
     17588       804  BUTH      H1             10.4809305330      -19.8967797959      -18.0177889881  BUTH      169             0.0000000000
     17589       804  BUTH      H2             10.6507444766      -18.1398240482      -18.3776900083  BUTH      169             0.0000000000
     17590       804  BUTH      H3             12.0907512987      -19.1610644252      -18.1549649139  BUTH      169             0.0000000000
     17591       804  BUTH      H4             11.6739178031      -17.7634954990      -16.1130979941  BUTH      169             0.0000000000
     17592       804  BUTH      H5             11.5342714431      -19.5026864967      -15.7298295721  BUTH      169             0.0000000000
     17593       804  BUTH      H6              9.7608862376      -18.0895484534      -14.7284245228  BUTH      169             0.0000000000
     17594       804  BUTH      H7              9.2030066649      -19.4579589133      -15.6914757307  BUTH      169             0.0000000000
     17595       804  BUTH      H8              7.8443847644      -16.4323676238      -16.5997803302  BUTH      169             0.0000000000
     17596       804  BUTH      H9              7.3048515326      -17.4131611427      -17.4521018472  BUTH      169             0.0000000000
     17597       804  BUTH      LPO11           7.8121994573      -18.3635150819      -16.8345204222  BUTH      169             0.0000000000
     17598       804  BUTH      LPO12           7.6916097988      -17.8052838725      -17.1608897525  BUTH      169             0.0000000000
     17599       804  BUTH      LPO21           8.6735980093      -16.4247736765      -15.8805135223  BUTH      169             0.0000000000
     17600       804  BUTH      LPO22           8.9108839246      -16.2150924352      -16.4570636590  BUTH      169             0.0000000000
     17601       805  BUTH      C1            -19.7967911673        9.1593029097       -4.9206117336  BUTH      170             0.0000000000
     17602       805  BUTH      DC1           -19.8039315090        9.1603474516       -4.8634423034  BUTH      170             0.0000000000
     17603       805  BUTH      C2            -20.1258746390        8.0098177792       -3.9721070623  BUTH      170             0.0000000000
     17604       805  BUTH      DC2           -20.1794032370        7.9690595189       -4.0213573184  BUTH      170             0.0000000000
     17605       805  BUTH      C3            -19.9539353480        8.3955147003       -2.4881631815  BUTH      170             0.0000000000
     17606       805  BUTH      DC3           -19.9413159148        8.4105253830       -2.5117477035  BUTH      170             0.0000000000
     17607       805  BUTH      C4            -18.7655568789        8.9830986396       -2.1770578330  BUTH      170             0.0000000000
     17608       805  BUTH      DC4           -18.7906284442        8.9712522481       -2.1869818346  BUTH      170             0.0000000000
     17609       805  BUTH      O1            -18.8606495934       10.1590713837       -1.7953797877  BUTH      170             0.0000000000
     17610       805  BUTH      DO1           -18.8312507482       10.1176466264       -1.7832006494  BUTH      170             0.0000000000
     17611       805  BUTH      O2            -17.7987756668        8.3284064039       -1.7520622347  BUTH      170             0.0000000000
     17612       805  BUTH      DO2           -17.8151467186        8.3168305913       -1.7536587597  BUTH      170             0.0000000000
     17613       805  BUTH      H1            -20.4201796013       10.0537929098       -4.7070807022  BUTH      170             0.0000000000
     17614       805  BUTH      H2            -18.7326887151        9.4645585009       -4.8266649627  BUTH      170             0.0000000000
     17615       805  BUTH      H3            -19.9631909857        8.8709218472       -5.9805496862  BUTH      170             0.0000000000
     17616       805  BUTH      H4            -19.4441531374        7.1612188199       -4.1944954622  BUTH      170             0.0000000000
     17617       805  BUTH      H5            -21.1644755518        7.6553217183       -4.1452015138  BUTH      170             0.0000000000
     17618       805  BUTH      H6            -20.0939745757        7.4572760157       -1.9098741653  BUTH      170             0.0000000000
     17619       805  BUTH      H7            -20.8469586566        9.0025648093       -2.2267812089  BUTH      170             0.0000000000
     17620       805  BUTH      H8            -17.3120222705        9.0680133164       -1.3558896131  BUTH      170             0.0000000000
     17621       805  BUTH      H9            -18.0318360022       10.5482746311       -1.4782838014  BUTH      170             0.0000000000
     17622       805  BUTH      LPO11         -19.1963529588       10.2580825219       -1.7951676350  BUTH      170             0.0000000000
     17623       805  BUTH      LPO12         -18.5433061434       10.2871098160       -1.7218998955  BUTH      170             0.0000000000
     17624       805  BUTH      LPO21         -17.9176729665        8.1667737938       -1.4652899706  BUTH      170             0.0000000000
     17625       805  BUTH      LPO22         -17.6019574966        8.2637083730       -2.0341557878  BUTH      170             0.0000000000
     17626       806  BUTH      C1            -16.0298112324      -13.1628517762       -6.1325070488  BUTH      171             0.0000000000
     17627       806  BUTH      DC1           -16.0387709401      -13.1489819524       -6.0980602408  BUTH      171             0.0000000000
     17628       806  BUTH      C2            -15.7164974375      -13.7335110004       -4.7510966679  BUTH      171             0.0000000000
     17629       806  BUTH      DC2           -15.7501522489      -13.7999631763       -4.7707344262  BUTH      171             0.0000000000
     17630       806  BUTH      C3            -15.6742836970      -12.6466670415       -3.6542663133  BUTH      171             0.0000000000
     17631       806  BUTH      DC3           -15.6635268793      -12.6343052471       -3.6946487589  BUTH      171             0.0000000000
     17632       806  BUTH      C4            -14.9241351123      -11.5537820034       -3.9714073385  BUTH      171             0.0000000000
     17633       806  BUTH      DC4           -14.9194425015      -11.5791154692       -3.9529889307  BUTH      171             0.0000000000
     17634       806  BUTH      O1            -15.5499426217      -10.5351287040       -4.2616662185  BUTH      171             0.0000000000
     17635       806  BUTH      DO1           -15.4822849458      -10.5528402406       -4.2267940572  BUTH      171             0.0000000000
     17636       806  BUTH      O2            -13.8234479313      -11.3169130507       -3.5112757347  BUTH      171             0.0000000000
     17637       806  BUTH      DO2           -13.8115203664      -11.3257142604       -3.4755001745  BUTH      171             0.0000000000
     17638       806  BUTH      H1            -16.9951413287      -12.6128949873       -6.1350241132  BUTH      171             0.0000000000
     17639       806  BUTH      H2            -15.2465163911      -12.4426930279       -6.4521029967  BUTH      171             0.0000000000
     17640       806  BUTH      H3            -16.0787961988      -13.9638034793       -6.9008805535  BUTH      171             0.0000000000
     17641       806  BUTH      H4            -14.7237283897      -14.2308265156       -4.7886186091  BUTH      171             0.0000000000
     17642       806  BUTH      H5            -16.4617824057      -14.5098741257       -4.4751770879  BUTH      171             0.0000000000
     17643       806  BUTH      H6            -15.3249171551      -13.1544551423       -2.7299204551  BUTH      171             0.0000000000
     17644       806  BUTH      H7            -16.7357766447      -12.3998113761       -3.4383589199  BUTH      171             0.0000000000
     17645       806  BUTH      H8            -13.7974167384      -10.4344502791       -3.9131237580  BUTH      171             0.0000000000
     17646       806  BUTH      H9            -15.0002921458       -9.7398350311       -4.3276459737  BUTH      171             0.0000000000
     17647       806  BUTH      LPO11         -15.8939941984      -10.5965005974       -4.2426398352  BUTH      171             0.0000000000
     17648       806  BUTH      LPO12         -15.3276759809      -10.2755223298       -4.3371782761  BUTH      171             0.0000000000
     17649       806  BUTH      LPO21         -13.8787619519      -11.2409404471       -3.1741281074  BUTH      171             0.0000000000
     17650       806  BUTH      LPO22         -13.5990224002      -11.4944784868       -3.7127793250  BUTH      171             0.0000000000
     17651       807  BUTH      C1            -21.1633901790      -21.2523697245        5.6554065961  BUTH      172             0.0000000000
     17652       807  BUTH      DC1           -21.2339384111      -21.2620875368        5.6425956322  BUTH      172             0.0000000000
     17653       807  BUTH      C2            -21.8785748751      -21.2324468950        4.3106928349  BUTH      172             0.0000000000
     17654       807  BUTH      DC2           -21.8712128841      -21.1841520895        4.2748995099  BUTH      172             0.0000000000
     17655       807  BUTH      C3            -23.3708224523      -21.5741656738        4.4524240623  BUTH      172             0.0000000000
     17656       807  BUTH      DC3           -23.3895978149      -21.6136492841        4.4887065924  BUTH      172             0.0000000000
     17657       807  BUTH      C4            -23.6021528083      -22.6876384867        5.1989885084  BUTH      172             0.0000000000
     17658       807  BUTH      DC4           -23.6097134368      -22.6928213321        5.2061572909  BUTH      172             0.0000000000
     17659       807  BUTH      O1            -24.2007220102      -22.4713246574        6.2654069997  BUTH      172             0.0000000000
     17660       807  BUTH      DO1           -24.2162128401      -22.5187475887        6.2448706716  BUTH      172             0.0000000000
     17661       807  BUTH      O2            -23.9026183944      -23.7716957076        4.6802744609  BUTH      172             0.0000000000
     17662       807  BUTH      DO2           -23.9113691776      -23.7710995896        4.6724771640  BUTH      172             0.0000000000
     17663       807  BUTH      H1            -21.6077314768      -20.5436607989        6.3865792648  BUTH      172             0.0000000000
     17664       807  BUTH      H2            -21.1863515979      -22.2609776293        6.1207063571  BUTH      172             0.0000000000
     17665       807  BUTH      H3            -20.0975437123      -20.9637948666        5.5328632922  BUTH      172             0.0000000000
     17666       807  BUTH      H4            -21.3994224790      -21.9740721986        3.6363591706  BUTH      172             0.0000000000
     17667       807  BUTH      H5            -21.7562744768      -20.2386964554        3.8292121224  BUTH      172             0.0000000000
     17668       807  BUTH      H6            -23.7562746367      -21.6645751761        3.4143615710  BUTH      172             0.0000000000
     17669       807  BUTH      H7            -23.8461147681      -20.6476710512        4.8397558694  BUTH      172             0.0000000000
     17670       807  BUTH      H8            -24.4180256660      -24.1025250737        5.4324760795  BUTH      172             0.0000000000
     17671       807  BUTH      H9            -24.4780185269      -23.2694982159        6.7397345381  BUTH      172             0.0000000000
     17672       807  BUTH      LPO11         -24.2684707902      -22.1294414461        6.2974378079  BUTH      172             0.0000000000
     17673       807  BUTH      LPO12         -24.2483653417      -22.7715069100        6.4389602427  BUTH      172             0.0000000000
     17674       807  BUTH      LPO21         -24.1569821339      -23.6963365264        4.4519762308  BUTH      172             0.0000000000
     17675       807  BUTH      LPO22         -23.6137850033      -23.9678481251        4.7047591765  BUTH      172             0.0000000000
     17676       808  BUTH      C1            -17.2267977486      -24.6253645482      -13.2644247239  BUTH      173             0.0000000000
     17677       808  BUTH      DC1           -17.2468598282      -24.6841986217      -13.2900696414  BUTH      173             0.0000000000
     17678       808  BUTH      C2            -16.1912284654      -25.6982243542      -13.5569268580  BUTH      173             0.0000000000
     17679       808  BUTH      DC2           -16.1316182153      -25.6560907015      -13.5578117995  BUTH      173             0.0000000000
     17680       808  BUTH      C3            -16.7855318399      -26.8608303864      -14.3762016707  BUTH      173             0.0000000000
     17681       808  BUTH      DC3           -16.8213104770      -26.8490446368      -14.3553504440  BUTH      173             0.0000000000
     17682       808  BUTH      C4            -17.9484404738      -27.3640347362      -13.8756309192  BUTH      173             0.0000000000
     17683       808  BUTH      DC4           -17.9453856172      -27.3535662088      -13.8788560302  BUTH      173             0.0000000000
     17684       808  BUTH      O1            -18.9619756260      -27.1566951317      -14.5625637399  BUTH      173             0.0000000000
     17685       808  BUTH      DO1           -18.9569879634      -27.1965053395      -14.5326301326  BUTH      173             0.0000000000
     17686       808  BUTH      O2            -17.9773843911      -28.3599724060      -13.1428408643  BUTH      173             0.0000000000
     17687       808  BUTH      DO2           -17.9724623674      -28.3495820134      -13.1524596242  BUTH      173             0.0000000000
     17688       808  BUTH      H1            -17.6065196433      -24.1540373869      -14.1960807718  BUTH      173             0.0000000000
     17689       808  BUTH      H2            -18.1084444459      -25.0562859438      -12.7435342811  BUTH      173             0.0000000000
     17690       808  BUTH      H3            -16.8061357516      -23.8191516757      -12.6261573125  BUTH      173             0.0000000000
     17691       808  BUTH      H4            -15.8122690411      -26.0980792668      -12.5921331995  BUTH      173             0.0000000000
     17692       808  BUTH      H5            -15.3259325492      -25.2557790733      -14.0952819006  BUTH      173             0.0000000000
     17693       808  BUTH      H6            -15.9873284342      -27.6322902609      -14.4213900147  BUTH      173             0.0000000000
     17694       808  BUTH      H7            -16.8607211662      -26.4870770174      -15.4197417930  BUTH      173             0.0000000000
     17695       808  BUTH      H8            -18.8833281478      -28.6501176312      -13.3325291822  BUTH      173             0.0000000000
     17696       808  BUTH      H9            -19.7606623466      -27.6055910670      -14.2470435953  BUTH      173             0.0000000000
     17697       808  BUTH      LPO11         -18.8769276718      -26.9757481655      -14.8498354596  BUTH      173             0.0000000000
     17698       808  BUTH      LPO12         -19.2424257885      -27.2976685296      -14.4077276736  BUTH      173             0.0000000000
     17699       808  BUTH      LPO21         -17.7939675542      -28.6035343621      -13.3147008000  BUTH      173             0.0000000000
     17700       808  BUTH      LPO22         -18.0165359367      -28.2325123555      -12.8192344799  BUTH      173             0.0000000000
     17701       809  BUTH      C1            -13.0103663202      -21.7515558877       26.2851451603  BUTH      174             0.0000000000
     17702       809  BUTH      DC1           -13.0531697911      -21.7078546719       26.2835847317  BUTH      174             0.0000000000
     17703       809  BUTH      C2            -14.4681948629      -21.8797384035       25.8501553992  BUTH      174             0.0000000000
     17704       809  BUTH      DC2           -14.4712387217      -21.9426544491       25.8204476082  BUTH      174             0.0000000000
     17705       809  BUTH      C3            -15.1147985886      -20.5264266506       25.4938817132  BUTH      174             0.0000000000
     17706       809  BUTH      DC3           -15.0810964936      -20.5035158705       25.5218787467  BUTH      174             0.0000000000
     17707       809  BUTH      C4            -14.9124536720      -19.5678058826       26.4358940023  BUTH      174             0.0000000000
     17708       809  BUTH      DC4           -14.9126329496      -19.5771737717       26.4423362930  BUTH      174             0.0000000000
     17709       809  BUTH      O1            -14.0673851959      -18.7178178150       26.1422836343  BUTH      174             0.0000000000
     17710       809  BUTH      DO1           -14.1227769014      -18.7114353791       26.1844206516  BUTH      174             0.0000000000
     17711       809  BUTH      O2            -15.7859390932      -19.1566525776       27.1920970412  BUTH      174             0.0000000000
     17712       809  BUTH      DO2           -15.7882066224      -19.1602456204       27.1958389623  BUTH      174             0.0000000000
     17713       809  BUTH      H1            -12.3857940236      -21.3002744771       25.4847855311  BUTH      174             0.0000000000
     17714       809  BUTH      H2            -12.9073448987      -21.1162330302       27.1907236790  BUTH      174             0.0000000000
     17715       809  BUTH      H3            -12.5781124355      -22.7459326663       26.5274103081  BUTH      174             0.0000000000
     17716       809  BUTH      H4            -15.0439621517      -22.3338258812       26.6847916027  BUTH      174             0.0000000000
     17717       809  BUTH      H5            -14.5430714265      -22.5704213117       24.9831654220  BUTH      174             0.0000000000
     17718       809  BUTH      H6            -16.1927057854      -20.7242639502       25.3114057452  BUTH      174             0.0000000000
     17719       809  BUTH      H7            -14.7153766707      -20.2628910246       24.4912192051  BUTH      174             0.0000000000
     17720       809  BUTH      H8            -15.4200276026      -18.2604409647       27.2538507930  BUTH      174             0.0000000000
     17721       809  BUTH      H9            -14.0413880483      -17.9538882245       26.7378478451  BUTH      174             0.0000000000
     17722       809  BUTH      LPO11         -13.9343448479      -18.7856388325       25.8257388897  BUTH      174             0.0000000000
     17723       809  BUTH      LPO12         -14.0364737128      -18.4850905159       26.4018649981  BUTH      174             0.0000000000
     17724       809  BUTH      LPO21         -16.0657148248      -19.1036153104       26.9885962101  BUTH      174             0.0000000000
     17725       809  BUTH      LPO22         -15.7038226727      -19.2870470579       27.5063488081  BUTH      174             0.0000000000
     17726       810  BUTH      C1              1.1583483557      -15.2314622548       29.1543932586  BUTH      175             0.0000000000
     17727       810  BUTH      DC1             1.1919620962      -15.2128198120       29.0665408122  BUTH      175             0.0000000000
     17728       810  BUTH      C2              0.9033195552      -14.9921322804       27.6738928895  BUTH      175             0.0000000000
     17729       810  BUTH      DC2             0.8571633342      -15.0011842909       27.6415471453  BUTH      175             0.0000000000
     17730       810  BUTH      C3              2.2041124101      -15.0467986032       26.8579116719  BUTH      175             0.0000000000
     17731       810  BUTH      DC3             2.2593541757      -15.0228880875       26.8838588160  BUTH      175             0.0000000000
     17732       810  BUTH      C4              3.2000371284      -14.2731755488       27.3672812053  BUTH      175             0.0000000000
     17733       810  BUTH      DC4             3.2184755883      -14.2738974513       27.3641613485  BUTH      175             0.0000000000
     17734       810  BUTH      O1              4.1672578013      -14.9171924204       27.8188665852  BUTH      175             0.0000000000
     17735       810  BUTH      DO1             4.1848062348      -14.8931587732       27.7934259736  BUTH      175             0.0000000000
     17736       810  BUTH      O2              3.4825471058      -13.1646647607       26.8445545920  BUTH      175             0.0000000000
     17737       810  BUTH      DO2             3.4796351199      -13.1714615503       26.8312210365  BUTH      175             0.0000000000
     17738       810  BUTH      H1              1.6398435226      -16.2154817726       29.3392959227  BUTH      175             0.0000000000
     17739       810  BUTH      H2              1.8116409990      -14.4524960965       29.6024350511  BUTH      175             0.0000000000
     17740       810  BUTH      H3              0.2077073132      -15.2277615368       29.7293618777  BUTH      175             0.0000000000
     17741       810  BUTH      H4              0.4231678371      -13.9991462983       27.5406481266  BUTH      175             0.0000000000
     17742       810  BUTH      H5              0.1916714695      -15.7522632805       27.2864927534  BUTH      175             0.0000000000
     17743       810  BUTH      H6              1.9256599437      -14.7424283246       25.8263381369  BUTH      175             0.0000000000
     17744       810  BUTH      H7              2.4440341491      -16.1269013627       26.7572310485  BUTH      175             0.0000000000
     17745       810  BUTH      H8              4.3861983766      -13.0620310268       27.1818685371  BUTH      175             0.0000000000
     17746       810  BUTH      H9              4.9312447629      -14.3711630054       28.0578996385  BUTH      175             0.0000000000
     17747       810  BUTH      LPO11           4.1107739022      -15.2604926287       27.7807282046  BUTH      175             0.0000000000
     17748       810  BUTH      LPO12           4.4094885410      -14.6975703989       27.9437282545  BUTH      175             0.0000000000
     17749       810  BUTH      LPO21           3.5484188546      -13.2372807221       26.5085667427  BUTH      175             0.0000000000
     17750       810  BUTH      LPO22           3.3149545184      -12.9273219350       27.0396984050  BUTH      175             0.0000000000
     17751       811  BUTH      C1              4.2916194107       28.4635661114      -11.9409453280  BUTH      176             0.0000000000
     17752       811  BUTH      DC1             4.3254800486       28.4262763866      -11.9604338212  BUTH      176             0.0000000000
     17753       811  BUTH      C2              3.8411229860       27.2846666010      -12.7919104773  BUTH      176             0.0000000000
     17754       811  BUTH      DC2             3.7854022839       27.2932381852      -12.7879501989  BUTH      176             0.0000000000
     17755       811  BUTH      C3              4.7804892827       26.0743918379      -12.6126838986  BUTH      176             0.0000000000
     17756       811  BUTH      DC3             4.8338868667       26.0947601664      -12.6142588335  BUTH      176             0.0000000000
     17757       811  BUTH      C4              6.1087074575       26.2642634386      -12.8630712767  BUTH      176             0.0000000000
     17758       811  BUTH      DC4             6.1161573323       26.2632435319      -12.8760224248  BUTH      176             0.0000000000
     17759       811  BUTH      O1              6.8462864268       26.4134271353      -11.8829835283  BUTH      176             0.0000000000
     17760       811  BUTH      DO1             6.8904884763       26.3717004159      -11.9613910616  BUTH      176             0.0000000000
     17761       811  BUTH      O2              6.7217542760       25.6781354695      -13.7226688340  BUTH      176             0.0000000000
     17762       811  BUTH      DO2             6.7237152678       25.6555554544      -13.7391565137  BUTH      176             0.0000000000
     17763       811  BUTH      H1              4.2101344571       28.2305297522      -10.8577208554  BUTH      176             0.0000000000
     17764       811  BUTH      H2              5.3564760153       28.7139854418      -12.1350884984  BUTH      176             0.0000000000
     17765       811  BUTH      H3              3.6825973349       29.3704819956      -12.1432240750  BUTH      176             0.0000000000
     17766       811  BUTH      H4              3.8110474310       27.5714868604      -13.8648273426  BUTH      176             0.0000000000
     17767       811  BUTH      H5              2.8095516655       26.9966165249      -12.4965991756  BUTH      176             0.0000000000
     17768       811  BUTH      H6              4.3285455926       25.2414782719      -13.1926174244  BUTH      176             0.0000000000
     17769       811  BUTH      H7              4.5741671470       25.7765360497      -11.5624295928  BUTH      176             0.0000000000
     17770       811  BUTH      H8              7.5308981413       25.7135521472      -13.1888787402  BUTH      176             0.0000000000
     17771       811  BUTH      H9              7.7929112261       26.3398011858      -12.0764821303  BUTH      176             0.0000000000
     17772       811  BUTH      LPO11           6.6584304543       26.3967086968      -11.5881435252  BUTH      176             0.0000000000
     17773       811  BUTH      LPO12           7.1770518137       26.4590467456      -11.9879268938  BUTH      176             0.0000000000
     17774       811  BUTH      LPO21           6.6271879012       25.3425671537      -13.6918288250  BUTH      176             0.0000000000
     17775       811  BUTH      LPO22           6.7858005623       25.9169680213      -13.9703724582  BUTH      176             0.0000000000
     17776       812  BUTH      C1            -10.5080959362      -23.3698370321       14.3129214133  BUTH      177             0.0000000000
     17777       812  BUTH      DC1           -10.4688822107      -23.3411667783       14.2997124766  BUTH      177             0.0000000000
     17778       812  BUTH      C2            -10.0617098331      -21.9124626434       14.3037023686  BUTH      177             0.0000000000
     17779       812  BUTH      DC2           -10.1299321699      -21.8714131776       14.3133544822  BUTH      177             0.0000000000
     17780       812  BUTH      C3             -8.7641425426      -21.7068669084       13.4944712403  BUTH      177             0.0000000000
     17781       812  BUTH      DC3            -8.7676244911      -21.7263054605       13.5073005268  BUTH      177             0.0000000000
     17782       812  BUTH      C4             -7.7334416509      -22.5327852515       13.8428817361  BUTH      177             0.0000000000
     17783       812  BUTH      DC4            -7.7466893412      -22.5050450941       13.8235755640  BUTH      177             0.0000000000
     17784       812  BUTH      O1             -7.3598419921      -23.2730374269       12.9174056618  BUTH      177             0.0000000000
     17785       812  BUTH      DO1            -7.3338984122      -23.2460238895       12.9435571387  BUTH      177             0.0000000000
     17786       812  BUTH      O2             -6.8394942751      -22.1388001623       14.6226248961  BUTH      177             0.0000000000
     17787       812  BUTH      DO2            -6.8417943924      -22.1103843891       14.6002618548  BUTH      177             0.0000000000
     17788       812  BUTH      H1            -10.6678996486      -23.7529853040       13.2823967040  BUTH      177             0.0000000000
     17789       812  BUTH      H2             -9.7483843298      -24.0210380014       14.7957221721  BUTH      177             0.0000000000
     17790       812  BUTH      H3            -11.4609764731      -23.4917224410       14.8710285983  BUTH      177             0.0000000000
     17791       812  BUTH      H4             -9.8834298925      -21.5856033996       15.3504594071  BUTH      177             0.0000000000
     17792       812  BUTH      H5            -10.8698725026      -21.2756342874       13.8846036383  BUTH      177             0.0000000000
     17793       812  BUTH      H6             -8.4979231893      -20.6373897059       13.6347094988  BUTH      177             0.0000000000
     17794       812  BUTH      H7             -9.0726816643      -21.7721755764       12.4291734462  BUTH      177             0.0000000000
     17795       812  BUTH      H8             -6.2903271112      -22.9383544813       14.6279462753  BUTH      177             0.0000000000
     17796       812  BUTH      H9             -6.5667619232      -23.7931775039       13.1159989763  BUTH      177             0.0000000000
     17797       812  BUTH      LPO11          -7.5514671788      -23.2124468997       12.6308597216  BUTH      177             0.0000000000
     17798       812  BUTH      LPO12          -7.0962346780      -23.4762536906       13.0256384392  BUTH      177             0.0000000000
     17799       812  BUTH      LPO21          -6.6397118118      -21.9250492140       14.4305376777  BUTH      177             0.0000000000
     17800       812  BUTH      LPO22          -6.9828913071      -22.1573594148       14.9413612218  BUTH      177             0.0000000000
     17801       813  BUTH      C1             23.4863478440        9.5094458468      -15.3123146481  BUTH      178             0.0000000000
     17802       813  BUTH      DC1            23.4119812607        9.4632353776      -15.3100121599  BUTH      178             0.0000000000
     17803       813  BUTH      C2             22.7443975198        8.3417256656      -15.9218659225  BUTH      178             0.0000000000
     17804       813  BUTH      DC2            22.7812266757        8.2855533627      -15.9707308433  BUTH      178             0.0000000000
     17805       813  BUTH      C3             21.2405348990        8.6175716647      -15.8581561432  BUTH      178             0.0000000000
     17806       813  BUTH      DC3            21.2426679391        8.6122067919      -15.8061239131  BUTH      178             0.0000000000
     17807       813  BUTH      C4             20.6565905217        8.9016900044      -14.6630507879  BUTH      178             0.0000000000
     17808       813  BUTH      DC4            20.6589050568        8.8629072035      -14.6475759152  BUTH      178             0.0000000000
     17809       813  BUTH      O1             20.1464712678       10.0227422030      -14.5630124443  BUTH      178             0.0000000000
     17810       813  BUTH      DO1            20.1305092978        9.9531245988      -14.5346841184  BUTH      178             0.0000000000
     17811       813  BUTH      O2             20.0980287469        8.0152967037      -13.9752655843  BUTH      178             0.0000000000
     17812       813  BUTH      DO2            20.1196037882        7.9395665477      -13.9583759766  BUTH      178             0.0000000000
     17813       813  BUTH      H1             23.2646982072       10.4567459689      -15.8487984941  BUTH      178             0.0000000000
     17814       813  BUTH      H2             23.1869928474        9.6600034325      -14.2530507520  BUTH      178             0.0000000000
     17815       813  BUTH      H3             24.5870040213        9.3642867873      -15.3548096790  BUTH      178             0.0000000000
     17816       813  BUTH      H4             22.9941530106        7.3943905140      -15.3979391071  BUTH      178             0.0000000000
     17817       813  BUTH      H5             23.0432444348        8.2424925652      -16.9873068233  BUTH      178             0.0000000000
     17818       813  BUTH      H6             20.7733042631        7.7347639160      -16.3446404819  BUTH      178             0.0000000000
     17819       813  BUTH      H7             21.1400427562        9.4524777971      -16.5842099152  BUTH      178             0.0000000000
     17820       813  BUTH      H8             19.4448946198        8.6351134517      -13.6145121909  BUTH      178             0.0000000000
     17821       813  BUTH      H9             19.6236783790       10.1671788900      -13.7600263679  BUTH      178             0.0000000000
     17822       813  BUTH      LPO11          20.1879869878       10.2002459059      -14.8617914269  BUTH      178             0.0000000000
     17823       813  BUTH      LPO12          20.0061221514       10.0624375089      -14.2448514658  BUTH      178             0.0000000000
     17824       813  BUTH      LPO21          19.9032422184        7.8314269784      -14.2005434847  BUTH      178             0.0000000000
     17825       813  BUTH      LPO22          20.3074778275        7.9656427547      -13.6992844835  BUTH      178             0.0000000000
     17826       814  BUTH      C1              8.8042294766        6.6334043412        1.1391266491  BUTH      179             0.0000000000
     17827       814  BUTH      DC1             8.8446992971        6.6328133892        1.1462231979  BUTH      179             0.0000000000
     17828       814  BUTH      C2              9.4329712076        6.1873899546        2.4535368691  BUTH      179             0.0000000000
     17829       814  BUTH      DC2             9.4504643095        6.0854253788        2.4132894404  BUTH      179             0.0000000000
     17830       814  BUTH      C3              9.1973032022        7.2277750829        3.5695522280  BUTH      179             0.0000000000
     17831       814  BUTH      DC3             9.2506863862        7.2442035486        3.4944753017  BUTH      179             0.0000000000
     17832       814  BUTH      C4              9.6526077143        8.4816362984        3.3021844556  BUTH      179             0.0000000000
     17833       814  BUTH      DC4             9.6717970751        8.4747132840        3.2928637640  BUTH      179             0.0000000000
     17834       814  BUTH      O1              8.8362147355        9.3985643232        3.1991341186  BUTH      179             0.0000000000
     17835       814  BUTH      DO1             8.9184095597        9.4066350727        3.2067846654  BUTH      179             0.0000000000
     17836       814  BUTH      O2             10.8094794903        8.8599861871        3.4806482223  BUTH      179             0.0000000000
     17837       814  BUTH      DO2            10.8331933923        8.8519335663        3.4768880657  BUTH      179             0.0000000000
     17838       814  BUTH      H1              7.7125583240        6.7937984625        1.2689296603  BUTH      179             0.0000000000
     17839       814  BUTH      H2              9.2297830753        7.6052523636        0.8093743844  BUTH      179             0.0000000000
     17840       814  BUTH      H3              8.9485663049        5.8863433333        0.3295664407  BUTH      179             0.0000000000
     17841       814  BUTH      H4             10.5255397741        6.0332382607        2.3237209103  BUTH      179             0.0000000000
     17842       814  BUTH      H5              8.9767628555        5.2283581123        2.7798080216  BUTH      179             0.0000000000
     17843       814  BUTH      H6              9.6820621731        6.8114759155        4.4784112621  BUTH      179             0.0000000000
     17844       814  BUTH      H7              8.1123258240        7.1882266961        3.8053084875  BUTH      179             0.0000000000
     17845       814  BUTH      H8             10.5437343950        9.7909853984        3.5399779191  BUTH      179             0.0000000000
     17846       814  BUTH      H9              9.2222541719       10.2724836803        3.0372714894  BUTH      179             0.0000000000
     17847       814  BUTH      LPO11           8.5119430069        9.2761536094        3.2477495811  BUTH      179             0.0000000000
     17848       814  BUTH      LPO12           9.0018397274        9.6991583907        3.1304932515  BUTH      179             0.0000000000
     17849       814  BUTH      LPO21          10.8810741333        8.7847466568        3.8148834989  BUTH      179             0.0000000000
     17850       814  BUTH      LPO22          10.9603743672        8.8487943775        3.1650448644  BUTH      179             0.0000000000
     17851       815  BUTH      C1            -20.6925663268        4.9775981126       -9.4671738441  BUTH      180             0.0000000000
     17852       815  BUTH      DC1           -20.6920771449        4.9695519968       -9.4406840561  BUTH      180             0.0000000000
     17853       815  BUTH      C2            -19.2032370747        5.2192611633       -9.2178724389  BUTH      180             0.0000000000
     17854       815  BUTH      DC2           -19.1994641749        5.0880366194       -9.2021827401  BUTH      180             0.0000000000
     17855       815  BUTH      C3            -18.9116681588        6.6363402394       -8.6847518820  BUTH      180             0.0000000000
     17856       815  BUTH      DC3           -18.9572373087        6.5767406305       -8.7223864983  BUTH      180             0.0000000000
     17857       815  BUTH      C4            -19.3238519941        7.6783243848       -9.4567669439  BUTH      180             0.0000000000
     17858       815  BUTH      DC4           -19.3291964095        7.6354167677       -9.4273806842  BUTH      180             0.0000000000
     17859       815  BUTH      O1            -20.3255673121        8.2904310266       -9.0494983057  BUTH      180             0.0000000000
     17860       815  BUTH      DO1           -20.2991092146        8.2912961320       -9.0708045224  BUTH      180             0.0000000000
     17861       815  BUTH      O2            -18.7399033451        8.0144523435      -10.4981847448  BUTH      180             0.0000000000
     17862       815  BUTH      DO2           -18.7443539122        7.9903723413      -10.4674677882  BUTH      180             0.0000000000
     17863       815  BUTH      H1            -21.3014881118        5.2567242952       -8.5808196059  BUTH      180             0.0000000000
     17864       815  BUTH      H2            -21.0417635122        5.6103630870      -10.3109693251  BUTH      180             0.0000000000
     17865       815  BUTH      H3            -20.9072126087        3.9187270242       -9.7260946656  BUTH      180             0.0000000000
     17866       815  BUTH      H4            -18.6485261474        5.0840776021      -10.1709423166  BUTH      180             0.0000000000
     17867       815  BUTH      H5            -18.7969730605        4.4890468406       -8.4857128974  BUTH      180             0.0000000000
     17868       815  BUTH      H6            -17.8125584715        6.6986801670       -8.5351102078  BUTH      180             0.0000000000
     17869       815  BUTH      H7            -19.3175553647        6.6656110695       -7.6509628346  BUTH      180             0.0000000000
     17870       815  BUTH      H8            -19.1542863719        8.8710195710      -10.6865442196  BUTH      180             0.0000000000
     17871       815  BUTH      H9            -20.6054452095        9.0234330290       -9.6181259769  BUTH      180             0.0000000000
     17872       815  BUTH      LPO11         -20.4396588807        8.1480073248       -8.7508369538  BUTH      180             0.0000000000
     17873       815  BUTH      LPO12         -20.4044830660        8.5507934901       -9.2696884312  BUTH      180             0.0000000000
     17874       815  BUTH      LPO21         -18.4240286175        8.1214707573      -10.3920234732  BUTH      180             0.0000000000
     17875       815  BUTH      LPO22         -18.8865673383        7.8192228541      -10.7489338616  BUTH      180             0.0000000000
     17876       816  BUTH      C1              7.2334859701       15.1099824808        9.0281205388  BUTH      181             0.0000000000
     17877       816  BUTH      DC1             7.2933776107       15.1026461123        9.1065122869  BUTH      181             0.0000000000
     17878       816  BUTH      C2              8.5720017540       14.5733859886        9.5096110337  BUTH      181             0.0000000000
     17879       816  BUTH      DC2             8.6159543062       14.5057466611        9.4731182564  BUTH      181             0.0000000000
     17880       816  BUTH      C3              8.7146877909       14.5911820089       11.0296302366  BUTH      181             0.0000000000
     17881       816  BUTH      DC3             8.7168507380       14.6106984422       11.0487722436  BUTH      181             0.0000000000
     17882       816  BUTH      C4              8.3128674531       15.7586358653       11.6050967002  BUTH      181             0.0000000000
     17883       816  BUTH      DC4             8.3402655237       15.7534252249       11.5877329106  BUTH      181             0.0000000000
     17884       816  BUTH      O1              7.7369749379       15.5710426285       12.6729669095  BUTH      181             0.0000000000
     17885       816  BUTH      DO1             7.8375803212       15.6310548011       12.6623657281  BUTH      181             0.0000000000
     17886       816  BUTH      O2              9.0916405527       16.6596979196       11.7879372378  BUTH      181             0.0000000000
     17887       816  BUTH      DO2             9.1225806529       16.6621905182       11.7826893757  BUTH      181             0.0000000000
     17888       816  BUTH      H1              6.3823656369       14.5031770433        9.4045542508  BUTH      181             0.0000000000
     17889       816  BUTH      H2              7.0668669428       16.1611414907        9.3469054765  BUTH      181             0.0000000000
     17890       816  BUTH      H3              7.1697702356       15.1018046894        7.9189792361  BUTH      181             0.0000000000
     17891       816  BUTH      H4              9.3761582141       15.2254711082        9.1065745782  BUTH      181             0.0000000000
     17892       816  BUTH      H5              8.7288712844       13.5443162631        9.1213734109  BUTH      181             0.0000000000
     17893       816  BUTH      H6              9.7866735071       14.3674770156       11.2170434200  BUTH      181             0.0000000000
     17894       816  BUTH      H7              8.1734637089       13.6859239577       11.3787797089  BUTH      181             0.0000000000
     17895       816  BUTH      H8              8.7083572131       16.8357477028       12.6614361533  BUTH      181             0.0000000000
     17896       816  BUTH      H9              7.4349482319       16.3852346038       13.1028881771  BUTH      181             0.0000000000
     17897       816  BUTH      LPO11           7.7230837262       15.2283821474       12.7429013713  BUTH      181             0.0000000000
     17898       816  BUTH      LPO12           7.6385590713       15.8771198102       12.8112820427  BUTH      181             0.0000000000
     17899       816  BUTH      LPO21           9.3947811875       16.5051010984       11.8698248339  BUTH      181             0.0000000000
     17900       816  BUTH      LPO22           8.9698691002       16.9274517945       11.5982544082  BUTH      181             0.0000000000
     17901       817  BUTH      C1              9.3842549919       23.5547295904      -21.4370742879  BUTH      182             0.0000000000
     17902       817  BUTH      DC1             9.3751250043       23.5903492807      -21.4443880902  BUTH      182             0.0000000000
     17903       817  BUTH      C2              8.2041703359       23.8326250583      -22.3610184941  BUTH      182             0.0000000000
     17904       817  BUTH      DC2             8.1919566348       23.7506170404      -22.3811274420  BUTH      182             0.0000000000
     17905       817  BUTH      C3              8.2192303973       25.2595875364      -22.9435221111  BUTH      182             0.0000000000
     17906       817  BUTH      DC3             8.2203811822       25.2407582479      -22.9118506446  BUTH      182             0.0000000000
     17907       817  BUTH      C4              8.2535434304       26.2608262609      -22.0221931984  BUTH      182             0.0000000000
     17908       817  BUTH      DC4             8.2593154059       26.2335740475      -22.0423252049  BUTH      182             0.0000000000
     17909       817  BUTH      O1              9.2862587634       26.9393312775      -22.0695815312  BUTH      182             0.0000000000
     17910       817  BUTH      DO1             9.2500170525       26.9412928935      -22.0596975787  BUTH      182             0.0000000000
     17911       817  BUTH      O2              7.2059263756       26.7937955244      -21.6084588893  BUTH      182             0.0000000000
     17912       817  BUTH      DO2             7.2083733589       26.7679890616      -21.6352329275  BUTH      182             0.0000000000
     17913       817  BUTH      H1             10.3525705417       23.7038279803      -21.9609594529  BUTH      182             0.0000000000
     17914       817  BUTH      H2              9.3724024735       24.2288808326      -20.5540677075  BUTH      182             0.0000000000
     17915       817  BUTH      H3              9.3579179031       22.5075089657      -21.0669981853  BUTH      182             0.0000000000
     17916       817  BUTH      H4              7.2620146538       23.6926673647      -21.7891133313  BUTH      182             0.0000000000
     17917       817  BUTH      H5              8.2100573429       23.0979966391      -23.1944496124  BUTH      182             0.0000000000
     17918       817  BUTH      H6              7.3084388252       25.3412950589      -23.5744766207  BUTH      182             0.0000000000
     17919       817  BUTH      H7              9.0530516888       25.2735719538      -23.6775980539  BUTH      182             0.0000000000
     17920       817  BUTH      H8              7.5635394197       27.5830872586      -21.1725328991  BUTH      182             0.0000000000
     17921       817  BUTH      H9              9.3130546778       27.6877384778      -21.4546590633  BUTH      182             0.0000000000
     17922       817  BUTH      LPO11           9.4966209896       26.8196577036      -22.3224173860  BUTH      182             0.0000000000
     17923       817  BUTH      LPO12           9.2758413677       27.1903707431      -21.8259205688  BUTH      182             0.0000000000
     17924       817  BUTH      LPO21           7.0620766685       26.9398057253      -21.8921634593  BUTH      182             0.0000000000
     17925       817  BUTH      LPO22           7.1142765790       26.6048287894      -21.3284733757  BUTH      182             0.0000000000
     17926       818  BUTH      C1            -21.0801850495       -5.5571260908       -4.6576156114  BUTH      183             0.0000000000
     17927       818  BUTH      DC1           -21.0491103860       -5.5553641952       -4.6591573308  BUTH      183             0.0000000000
     17928       818  BUTH      C2            -21.1793815928       -5.2512002307       -6.1493437996  BUTH      183             0.0000000000
     17929       818  BUTH      DC2           -21.2170154422       -5.3323167844       -6.1545321248  BUTH      183             0.0000000000
     17930       818  BUTH      C3            -19.9665431393       -4.4564899275       -6.6754574492  BUTH      183             0.0000000000
     17931       818  BUTH      DC3           -19.9765362103       -4.4628824116       -6.6349585385  BUTH      183             0.0000000000
     17932       818  BUTH      C4            -19.6806264701       -3.3178685002       -5.9822739524  BUTH      183             0.0000000000
     17933       818  BUTH      DC4           -19.6691615460       -3.3517780975       -5.9840816650  BUTH      183             0.0000000000
     17934       818  BUTH      O1            -18.7479201958       -3.4552632982       -5.1749170194  BUTH      183             0.0000000000
     17935       818  BUTH      DO1           -18.7490767243       -3.4277137810       -5.1858531064  BUTH      183             0.0000000000
     17936       818  BUTH      O2            -19.8705822180       -2.1833968520       -6.4464725791  BUTH      183             0.0000000000
     17937       818  BUTH      DO2           -19.8490366866       -2.2099844297       -6.4541153722  BUTH      183             0.0000000000
     17938       818  BUTH      H1            -20.1521728705       -6.1246118481       -4.4316193515  BUTH      183             0.0000000000
     17939       818  BUTH      H2            -21.0553024965       -4.6161193868       -4.0675238900  BUTH      183             0.0000000000
     17940       818  BUTH      H3            -21.9583312982       -6.1387667921       -4.3042400874  BUTH      183             0.0000000000
     17941       818  BUTH      H4            -22.0950796414       -4.6486981268       -6.3304771783  BUTH      183             0.0000000000
     17942       818  BUTH      H5            -21.2766283160       -6.1944891057       -6.7281962619  BUTH      183             0.0000000000
     17943       818  BUTH      H6            -20.1697691324       -4.2414909278       -7.7463428903  BUTH      183             0.0000000000
     17944       818  BUTH      H7            -19.1340119780       -5.1916431127       -6.7030737482  BUTH      183             0.0000000000
     17945       818  BUTH      H8            -19.5369627812       -1.6420691491       -5.7139683883  BUTH      183             0.0000000000
     17946       818  BUTH      H9            -18.4267518292       -2.6286573897       -4.7843602984  BUTH      183             0.0000000000
     17947       818  BUTH      LPO11         -18.6265408983       -3.7833222570       -5.1869330784  BUTH      183             0.0000000000
     17948       818  BUTH      LPO12         -18.6893943669       -3.1537057464       -5.0071738518  BUTH      183             0.0000000000
     17949       818  BUTH      LPO21         -19.6137820737       -2.1382680847       -6.6799615087  BUTH      183             0.0000000000
     17950       818  BUTH      LPO22         -20.2147601395       -2.1295377355       -6.4126975306  BUTH      183             0.0000000000
     17951       819  BUTH      C1             27.1913012663       15.7537624629       -6.9684474194  BUTH      184             0.0000000000
     17952       819  BUTH      DC1            27.1895484676       15.7011705916       -7.0095864948  BUTH      184             0.0000000000
     17953       819  BUTH      C2             28.2544324181       15.2330005258       -7.9264083023  BUTH      184             0.0000000000
     17954       819  BUTH      DC2            28.2786005669       15.2813884636       -7.9441585500  BUTH      184             0.0000000000
     17955       819  BUTH      C3             27.7218245268       14.1015963256       -8.8314222158  BUTH      184             0.0000000000
     17956       819  BUTH      DC3            27.6829362822       14.0713046089       -8.8007323238  BUTH      184             0.0000000000
     17957       819  BUTH      C4             27.0900113589       13.0982088053       -8.1611629659  BUTH      184             0.0000000000
     17958       819  BUTH      DC4            27.0756975323       13.0919069486       -8.1614016381  BUTH      184             0.0000000000
     17959       819  BUTH      O1             25.9056804240       12.9014650840       -8.4887497342  BUTH      184             0.0000000000
     17960       819  BUTH      DO1            25.9272556416       12.8427112869       -8.4804454315  BUTH      184             0.0000000000
     17961       819  BUTH      O2             27.6768305303       12.0686734798       -7.8312773723  BUTH      184             0.0000000000
     17962       819  BUTH      DO2            27.6686362328       12.0685533035       -7.8397728706  BUTH      184             0.0000000000
     17963       819  BUTH      H1             26.3027046570       16.1277459029       -7.5205827773  BUTH      184             0.0000000000
     17964       819  BUTH      H2             26.8462213903       14.9669992867       -6.2640011233  BUTH      184             0.0000000000
     17965       819  BUTH      H3             27.5832270881       16.5935129866       -6.3556389598  BUTH      184             0.0000000000
     17966       819  BUTH      H4             29.1141937493       14.8517356477       -7.3349959703  BUTH      184             0.0000000000
     17967       819  BUTH      H5             28.6394635523       16.0635836477       -8.5558554433  BUTH      184             0.0000000000
     17968       819  BUTH      H6             28.6113986197       13.7367815188       -9.3880990430  BUTH      184             0.0000000000
     17969       819  BUTH      H7             27.1052818082       14.6057806382       -9.6060151781  BUTH      184             0.0000000000
     17970       819  BUTH      H8             26.9049913884       11.4822220685       -7.8664779571  BUTH      184             0.0000000000
     17971       819  BUTH      H9             25.4905371080       12.1404852435       -8.0557061917  BUTH      184             0.0000000000
     17972       819  BUTH      LPO11          25.8122042622       13.1260214235       -8.7404174865  BUTH      184             0.0000000000
     17973       819  BUTH      LPO12          25.7713088986       12.6390581738       -8.3001048122  BUTH      184             0.0000000000
     17974       819  BUTH      LPO21          27.8508481280       11.9677801527       -8.1177008564  BUTH      184             0.0000000000
     17975       819  BUTH      LPO22          27.7233461811       12.0976467855       -7.4855942200  BUTH      184             0.0000000000
     17976       820  BUTH      C1              0.3881426550       20.3454280668       -5.7832007293  BUTH      185             0.0000000000
     17977       820  BUTH      DC1             0.4351462506       20.3178944059       -5.8266918798  BUTH      185             0.0000000000
     17978       820  BUTH      C2              0.0259197587       19.6919086906       -4.4546400213  BUTH      185             0.0000000000
     17979       820  BUTH      DC2             0.0177054717       19.7616208788       -4.4680158381  BUTH      185             0.0000000000
     17980       820  BUTH      C3              0.8828857191       18.4433055011       -4.1410465366  BUTH      185             0.0000000000
     17981       820  BUTH      DC3             0.8948346746       18.4671429666       -4.1824614167  BUTH      185             0.0000000000
     17982       820  BUTH      C4              1.0904984420       17.5861303670       -5.1964741251  BUTH      185             0.0000000000
     17983       820  BUTH      DC4             1.1615495192       17.6275274790       -5.1643429480  BUTH      185             0.0000000000
     17984       820  BUTH      O1              2.2484178580       17.7769226154       -5.6475296660  BUTH      185             0.0000000000
     17985       820  BUTH      DO1             2.3050194149       17.7725856337       -5.6487427033  BUTH      185             0.0000000000
     17986       820  BUTH      O2              0.6510489185       16.4125991214       -5.1497171769  BUTH      185             0.0000000000
     17987       820  BUTH      DO2             0.7095781622       16.4343306932       -5.0752874178  BUTH      185             0.0000000000
     17988       820  BUTH      H1              1.4449006357       20.6878077852       -5.7642349957  BUTH      185             0.0000000000
     17989       820  BUTH      H2              0.2591653143       19.6222490802       -6.6166861815  BUTH      185             0.0000000000
     17990       820  BUTH      H3             -0.2631406380       21.2243948244       -5.9770267137  BUTH      185             0.0000000000
     17991       820  BUTH      H4             -1.0419343265       19.3860061118       -4.4754310592  BUTH      185             0.0000000000
     17992       820  BUTH      H5              0.1302417024       20.4268363789       -3.6280087704  BUTH      185             0.0000000000
     17993       820  BUTH      H6              0.3944938930       17.9523008579       -3.2723067226  BUTH      185             0.0000000000
     17994       820  BUTH      H7              1.8024538947       18.8699093634       -3.6863768586  BUTH      185             0.0000000000
     17995       820  BUTH      H8              0.3143667300       16.3050021265       -6.0530266424  BUTH      185             0.0000000000
     17996       820  BUTH      H9              2.5472836589       17.0825949014       -6.2537880751  BUTH      185             0.0000000000
     17997       820  BUTH      LPO11           2.4084953293       18.0282575095       -5.4639377974  BUTH      185             0.0000000000
     17998       820  BUTH      LPO12           2.3088425879       17.5619202243       -5.9170158880  BUTH      185             0.0000000000
     17999       820  BUTH      LPO21           0.9358306931       16.2097898426       -5.1660798569  BUTH      185             0.0000000000
     18000       820  BUTH      LPO22           0.3490804984       16.4371432527       -4.9744669019  BUTH      185             0.0000000000
     18001       821  BUTH      C1             -8.1619919055       -0.5805364161       -5.2536370968  BUTH      186             0.0000000000
     18002       821  BUTH      DC1            -8.1655975422       -0.5732708637       -5.2223875992  BUTH      186             0.0000000000
     18003       821  BUTH      C2             -9.2833127571       -1.2014940241       -4.4276423087  BUTH      186             0.0000000000
     18004       821  BUTH      DC2            -9.2514594334       -1.2865159368       -4.4541769121  BUTH      186             0.0000000000
     18005       821  BUTH      C3            -10.3411632992       -0.1683999469       -3.9860697014  BUTH      186             0.0000000000
     18006       821  BUTH      DC3           -10.2830565874       -0.1643088224       -3.9766744031  BUTH      186             0.0000000000
     18007       821  BUTH      C4             -9.8677676704        0.9396852097       -3.3485758741  BUTH      186             0.0000000000
     18008       821  BUTH      DC4            -9.8685992656        0.9207668207       -3.3566283154  BUTH      186             0.0000000000
     18009       821  BUTH      O1            -10.0505589734        2.0210218856       -3.9177875993  BUTH      186             0.0000000000
     18010       821  BUTH      DO1           -10.0439538586        2.0022351157       -3.8577563366  BUTH      186             0.0000000000
     18011       821  BUTH      O2             -9.7150987946        0.9936826833       -2.1278798035  BUTH      186             0.0000000000
     18012       821  BUTH      DO2            -9.7168750983        0.9793146799       -2.1376205304  BUTH      186             0.0000000000
     18013       821  BUTH      H1             -8.5676818290       -0.0905287828       -6.1644769318  BUTH      186             0.0000000000
     18014       821  BUTH      H2             -7.6213486460        0.2001020050       -4.6768966701  BUTH      186             0.0000000000
     18015       821  BUTH      H3             -7.4291286390       -1.3465262590       -5.5860404593  BUTH      186             0.0000000000
     18016       821  BUTH      H4             -8.8554336379       -1.6756920770       -3.5185896885  BUTH      186             0.0000000000
     18017       821  BUTH      H5             -9.7956808085       -1.9910274362       -5.0179278096  BUTH      186             0.0000000000
     18018       821  BUTH      H6            -11.0311481663       -0.7485684248       -3.3367266313  BUTH      186             0.0000000000
     18019       821  BUTH      H7            -10.9683186460        0.0455270038       -4.8778277576  BUTH      186             0.0000000000
     18020       821  BUTH      H8             -9.7516574661        1.9593529366       -2.0439487285  BUTH      186             0.0000000000
     18021       821  BUTH      H9             -9.7694234061        2.7989931129       -3.4131247784  BUTH      186             0.0000000000
     18022       821  BUTH      LPO11         -10.2199209845        1.9701810058       -4.2198334801  BUTH      186             0.0000000000
     18023       821  BUTH      LPO12          -9.9166152760        2.2813865283       -3.7260342714  BUTH      186             0.0000000000
     18024       821  BUTH      LPO21         -10.0255621040        0.9034718066       -1.9938106746  BUTH      186             0.0000000000
     18025       821  BUTH      LPO22          -9.3738044039        0.9353535715       -2.0767343872  BUTH      186             0.0000000000
     18026       822  BUTH      C1              3.6821985637      -15.0824220496      -17.0452183248  BUTH      187             0.0000000000
     18027       822  BUTH      DC1             3.6550363915      -15.0439219526      -17.0342933858  BUTH      187             0.0000000000
     18028       822  BUTH      C2              3.2209444664      -14.3251229632      -18.2866383496  BUTH      187             0.0000000000
     18029       822  BUTH      DC2             3.2919570520      -14.3181932677      -18.3042992049  BUTH      187             0.0000000000
     18030       822  BUTH      C3              2.1793668457      -13.2283390259      -17.9727600577  BUTH      187             0.0000000000
     18031       822  BUTH      DC3             2.1723187322      -13.2429802126      -17.9386480598  BUTH      187             0.0000000000
     18032       822  BUTH      C4              1.1007241851      -13.6319749881      -17.2434930645  BUTH      187             0.0000000000
     18033       822  BUTH      DC4             1.1182136894      -13.6210006779      -17.2343793220  BUTH      187             0.0000000000
     18034       822  BUTH      O1              1.0456354098      -13.1342043697      -16.1038066653  BUTH      187             0.0000000000
     18035       822  BUTH      DO1             1.0088227294      -13.1313013764      -16.1188656997  BUTH      187             0.0000000000
     18036       822  BUTH      O2              0.0135578883      -13.8808934740      -17.7789268803  BUTH      187             0.0000000000
     18037       822  BUTH      DO2             0.0318344737      -13.8643256604      -17.7710529380  BUTH      187             0.0000000000
     18038       822  BUTH      H1              4.1314670145      -14.3991146689      -16.2931745208  BUTH      187             0.0000000000
     18039       822  BUTH      H2              2.8317370026      -15.6112099625      -16.5641575426  BUTH      187             0.0000000000
     18040       822  BUTH      H3              4.4379577151      -15.8522061063      -17.3108903272  BUTH      187             0.0000000000
     18041       822  BUTH      H4              2.7621362381      -15.0497831004      -18.9928137506  BUTH      187             0.0000000000
     18042       822  BUTH      H5              4.0928691673      -13.8789963486      -18.8110803010  BUTH      187             0.0000000000
     18043       822  BUTH      H6              1.8752240749      -12.8217859965      -18.9609568044  BUTH      187             0.0000000000
     18044       822  BUTH      H7              2.7541827764      -12.3972077451      -17.5111016991  BUTH      187             0.0000000000
     18045       822  BUTH      H8             -0.5734813704      -13.7893159721      -17.0121815048  BUTH      187             0.0000000000
     18046       822  BUTH      H9              0.2325760359      -13.3345314814      -15.6161956491  BUTH      187             0.0000000000
     18047       822  BUTH      LPO11           1.3186910391      -12.9212608886      -16.0528586804  BUTH      187             0.0000000000
     18048       822  BUTH      LPO12           0.7619850560      -13.2514161435      -15.9355691044  BUTH      187             0.0000000000
     18049       822  BUTH      LPO21          -0.0675850642      -13.5899932680      -17.9558248493  BUTH      187             0.0000000000
     18050       822  BUTH      LPO22           0.0113109100      -14.2285671289      -17.8191510115  BUTH      187             0.0000000000
     18051       823  BUTH      C1             22.2544394361        0.6653292882      -19.7397068173  BUTH      188             0.0000000000
     18052       823  BUTH      DC1            22.2463450599        0.7309736665      -19.7433241416  BUTH      188             0.0000000000
     18053       823  BUTH      C2             21.7355590348        2.0026136864      -19.2228132291  BUTH      188             0.0000000000
     18054       823  BUTH      DC2            21.6709676507        1.9929354994      -19.1720148006  BUTH      188             0.0000000000
     18055       823  BUTH      C3             22.0772174782        3.1597536111      -20.1836821809  BUTH      188             0.0000000000
     18056       823  BUTH      DC3            22.1035815206        3.1469783517      -20.1739467921  BUTH      188             0.0000000000
     18057       823  BUTH      C4             23.3919375421        3.2527034716      -20.5373282199  BUTH      188             0.0000000000
     18058       823  BUTH      DC4            23.3739156295        3.2617112674      -20.5222433144  BUTH      188             0.0000000000
     18059       823  BUTH      O1             23.6108910337        3.0968511904      -21.7471061801  BUTH      188             0.0000000000
     18060       823  BUTH      DO1            23.6268033769        3.1281073634      -21.7057644584  BUTH      188             0.0000000000
     18061       823  BUTH      O2             24.1733281090        4.0095892028      -19.9009368968  BUTH      188             0.0000000000
     18062       823  BUTH      DO2            24.1392146693        4.0308398654      -19.8737341140  BUTH      188             0.0000000000
     18063       823  BUTH      H1             21.8452211332        0.4346524671      -20.7465084789  BUTH      188             0.0000000000
     18064       823  BUTH      H2             23.3622725339        0.6568787087      -19.8231059491  BUTH      188             0.0000000000
     18065       823  BUTH      H3             21.9704676685       -0.1696819035      -19.0641053481  BUTH      188             0.0000000000
     18066       823  BUTH      H4             22.1906485165        2.2064661987      -18.2300097658  BUTH      188             0.0000000000
     18067       823  BUTH      H5             20.6342853910        1.9506879658      -19.0856232811  BUTH      188             0.0000000000
     18068       823  BUTH      H6             21.7210949459        4.0838227992      -19.6801011255  BUTH      188             0.0000000000
     18069       823  BUTH      H7             21.3794348441        3.0355757954      -21.0392523217  BUTH      188             0.0000000000
     18070       823  BUTH      H8             24.9396109806        3.9916473176      -20.4954019079  BUTH      188             0.0000000000
     18071       823  BUTH      H9             24.5293157949        3.2484816582      -22.0162997179  BUTH      188             0.0000000000
     18072       823  BUTH      LPO11          23.3103092844        3.0383318859      -21.9165939466  BUTH      188             0.0000000000
     18073       823  BUTH      LPO12          23.9537722815        3.1252614827      -21.8113347187  BUTH      188             0.0000000000
     18074       823  BUTH      LPO21          24.0548702233        4.3332648470      -19.9617793716  BUTH      188             0.0000000000
     18075       823  BUTH      LPO22          24.2942727429        3.8134512982      -19.6374937002  BUTH      188             0.0000000000
     18076       824  BUTH      C1            -25.5043419002        5.7178844072       11.6446231153  BUTH      189             0.0000000000
     18077       824  BUTH      DC1           -25.5067691082        5.7538579022       11.6322651528  BUTH      189             0.0000000000
     18078       824  BUTH      C2            -25.5385771083        6.2609140613       10.2192025446  BUTH      189             0.0000000000
     18079       824  BUTH      DC2           -25.5284375105        6.1923432815       10.1855371928  BUTH      189             0.0000000000
     18080       824  BUTH      C3            -25.1822472667        7.7598273173       10.1553860545  BUTH      189             0.0000000000
     18081       824  BUTH      DC3           -25.2068885018        7.7518167018       10.1822716099  BUTH      189             0.0000000000
     18082       824  BUTH      C4            -25.9046058210        8.5586127890       10.9917481211  BUTH      189             0.0000000000
     18083       824  BUTH      DC4           -25.9023985364        8.5410080363       10.9782754262  BUTH      189             0.0000000000
     18084       824  BUTH      O1            -25.2655068615        9.0473643922       11.9316376025  BUTH      189             0.0000000000
     18085       824  BUTH      DO1           -25.3105067984        9.0650334178       11.8950589649  BUTH      189             0.0000000000
     18086       824  BUTH      O2            -26.8871144391        9.2074825258       10.5994749704  BUTH      189             0.0000000000
     18087       824  BUTH      DO2           -26.8861090374        9.1919789119       10.5833843350  BUTH      189             0.0000000000
     18088       824  BUTH      H1            -24.5024543422        5.8651298125       12.1016363665  BUTH      189             0.0000000000
     18089       824  BUTH      H2            -26.2443299064        6.2359230814       12.2914420120  BUTH      189             0.0000000000
     18090       824  BUTH      H3            -25.7363126518        4.6315959020       11.6667105486  BUTH      189             0.0000000000
     18091       824  BUTH      H4            -26.5570668265        6.1170370362        9.7993226856  BUTH      189             0.0000000000
     18092       824  BUTH      H5            -24.8294225640        5.6911271307        9.5814222643  BUTH      189             0.0000000000
     18093       824  BUTH      H6            -25.3086842334        8.0573712654        9.0924644705  BUTH      189             0.0000000000
     18094       824  BUTH      H7            -24.0840626523        7.8116495361       10.3154673161  BUTH      189             0.0000000000
     18095       824  BUTH      H8            -26.8274074523        9.9262241875       11.2481239508  BUTH      189             0.0000000000
     18096       824  BUTH      H9            -25.7508564548        9.7048107992       12.4523688151  BUTH      189             0.0000000000
     18097       824  BUTH      LPO11         -24.9318460806        8.9427283321       11.9167453829  BUTH      189             0.0000000000
     18098       824  BUTH      LPO12         -25.4754959619        9.2465785003       12.1284073076  BUTH      189             0.0000000000
     18099       824  BUTH      LPO21         -26.7781250071        9.3709021450       10.3097935389  BUTH      189             0.0000000000
     18100       824  BUTH      LPO22         -27.1653100324        9.0327190349       10.7201602392  BUTH      189             0.0000000000
     18101       825  BUTH      C1             -7.1762800359      -29.0616100226       24.6759545003  BUTH      190             0.0000000000
     18102       825  BUTH      DC1            -7.1136372197      -29.0430788997       24.6234745051  BUTH      190             0.0000000000
     18103       825  BUTH      C2             -5.7954098138      -29.0945900607       25.3104574361  BUTH      190             0.0000000000
     18104       825  BUTH      DC2            -5.7823034456      -29.1220277954       25.3688897014  BUTH      190             0.0000000000
     18105       825  BUTH      C3             -4.9063298451      -27.9478344365       24.7904480083  BUTH      190             0.0000000000
     18106       825  BUTH      DC3            -4.8890670506      -27.9470059968       24.7581425259  BUTH      190             0.0000000000
     18107       825  BUTH      C4             -4.8853953921      -27.7304552971       23.4467168390  BUTH      190             0.0000000000
     18108       825  BUTH      DC4            -4.9121848801      -27.7178576331       23.4485286900  BUTH      190             0.0000000000
     18109       825  BUTH      O1             -5.1083137800      -26.5443952655       23.1389315050  BUTH      190             0.0000000000
     18110       825  BUTH      DO1            -5.0869304609      -26.5317305519       23.1027310113  BUTH      190             0.0000000000
     18111       825  BUTH      O2             -4.0971511758      -28.3698663231       22.7193996252  BUTH      190             0.0000000000
     18112       825  BUTH      DO2            -4.1226778080      -28.3812748941       22.7321184120  BUTH      190             0.0000000000
     18113       825  BUTH      H1             -7.6622085765      -28.0779362777       24.8508270814  BUTH      190             0.0000000000
     18114       825  BUTH      H2             -7.1275932603      -29.2407919058       23.5805803852  BUTH      190             0.0000000000
     18115       825  BUTH      H3             -7.8386805160      -29.8327447330       25.1241708123  BUTH      190             0.0000000000
     18116       825  BUTH      H4             -5.3171959218      -30.0734760726       25.0927083825  BUTH      190             0.0000000000
     18117       825  BUTH      H5             -5.9090769812      -29.0087080633       26.4122854887  BUTH      190             0.0000000000
     18118       825  BUTH      H6             -3.8859448228      -28.2065301824       25.1457111761  BUTH      190             0.0000000000
     18119       825  BUTH      H7             -5.2251048108      -27.0697854212       25.3918908135  BUTH      190             0.0000000000
     18120       825  BUTH      H8             -3.5689790366      -27.6499581806       22.3403660413  BUTH      190             0.0000000000
     18121       825  BUTH      H9             -5.0172597729      -26.3565057545       22.1926927933  BUTH      190             0.0000000000
     18122       825  BUTH      LPO11          -5.1604172052      -26.3535592329       23.4276646720  BUTH      190             0.0000000000
     18123       825  BUTH      LPO12          -5.0990619433      -26.5072350488       22.7910327815  BUTH      190             0.0000000000
     18124       825  BUTH      LPO21          -3.8634335948      -28.5075055070       22.9406043886  BUTH      190             0.0000000000
     18125       825  BUTH      LPO22          -4.2872391556      -28.4602660505       22.4397669210  BUTH      190             0.0000000000
     18126       826  BUTH      C1            -26.9760418522      -24.6580057728      -10.3564569253  BUTH      191             0.0000000000
     18127       826  BUTH      DC1           -26.9367586936      -24.6633168067      -10.3318781484  BUTH      191             0.0000000000
     18128       826  BUTH      C2            -26.3401901835      -26.0351819428      -10.5179055823  BUTH      191             0.0000000000
     18129       826  BUTH      DC2           -26.3862876989      -26.0493128131      -10.5576624398  BUTH      191             0.0000000000
     18130       826  BUTH      C3            -25.5393772608      -26.4716970785       -9.2699556088  BUTH      191             0.0000000000
     18131       826  BUTH      DC3           -25.5204239168      -26.4217958886       -9.2686794666  BUTH      191             0.0000000000
     18132       826  BUTH      C4            -24.6208629542      -25.5650392095       -8.8346387477  BUTH      191             0.0000000000
     18133       826  BUTH      DC4           -24.6222332639      -25.5579560104       -8.8361049412  BUTH      191             0.0000000000
     18134       826  BUTH      O1            -24.8114974721      -25.0838679845       -7.7055937226  BUTH      191             0.0000000000
     18135       826  BUTH      DO1           -24.7510871913      -25.0865415500       -7.7212515231  BUTH      191             0.0000000000
     18136       826  BUTH      O2            -23.4403350589      -25.5895615590       -9.1949324889  BUTH      191             0.0000000000
     18137       826  BUTH      DO2           -23.4433639079      -25.5895996653       -9.1980855711  BUTH      191             0.0000000000
     18138       826  BUTH      H1            -27.6532170792      -24.6348483545       -9.4759920214  BUTH      191             0.0000000000
     18139       826  BUTH      H2            -26.2065000637      -23.8695013770      -10.2136729856  BUTH      191             0.0000000000
     18140       826  BUTH      H3            -27.5775475068      -24.3901723309      -11.2513184762  BUTH      191             0.0000000000
     18141       826  BUTH      H4            -25.6604549611      -26.0231272616      -11.3966181133  BUTH      191             0.0000000000
     18142       826  BUTH      H5            -27.1281290356      -26.7900207738      -10.7269311958  BUTH      191             0.0000000000
     18143       826  BUTH      H6            -25.0655755407      -27.4366585349       -9.5504592967  BUTH      191             0.0000000000
     18144       826  BUTH      H7            -26.2981372837      -26.7562963677       -8.5099506922  BUTH      191             0.0000000000
     18145       826  BUTH      H8            -23.0711675548      -25.1898576663       -8.3919056201  BUTH      191             0.0000000000
     18146       826  BUTH      H9            -24.1021124009      -24.5045014239       -7.3892581263  BUTH      191             0.0000000000
     18147       826  BUTH      LPO11         -25.1026011610      -25.2186491539       -7.5656198726  BUTH      191             0.0000000000
     18148       826  BUTH      LPO12         -24.5571408943      -24.8563352364       -7.6279304757  BUTH      191             0.0000000000
     18149       826  BUTH      LPO21         -23.3403585929      -25.9227171645       -9.1560474172  BUTH      191             0.0000000000
     18150       826  BUTH      LPO22         -23.4090963609      -25.3250128471       -9.4219525822  BUTH      191             0.0000000000
     18151       827  BUTH      C1            -12.6705764417       -8.6965128244      -21.9128877237  BUTH      192             0.0000000000
     18152       827  BUTH      DC1           -12.6916121678       -8.7220759028      -21.8914465130  BUTH      192             0.0000000000
     18153       827  BUTH      C2            -13.1624589931       -7.7539165881      -20.8232656258  BUTH      192             0.0000000000
     18154       827  BUTH      DC2           -13.0731236139       -7.7554132027      -20.7947977944  BUTH      192             0.0000000000
     18155       827  BUTH      C3            -14.5364750401       -8.1702090271      -20.2668088294  BUTH      192             0.0000000000
     18156       827  BUTH      DC3           -14.5143165293       -8.1940381857      -20.3031226430  BUTH      192             0.0000000000
     18157       827  BUTH      C4            -15.4603751038       -8.4566640729      -21.2222395889  BUTH      192             0.0000000000
     18158       827  BUTH      DC4           -15.4402917837       -8.4806854204      -21.2047661150  BUTH      192             0.0000000000
     18159       827  BUTH      O1            -15.9416123530       -9.6016345565      -21.1636470082  BUTH      192             0.0000000000
     18160       827  BUTH      DO1           -15.9689369919       -9.5709759629      -21.1722903857  BUTH      192             0.0000000000
     18161       827  BUTH      O2            -16.0481381501       -7.5863549817      -21.8622923735  BUTH      192             0.0000000000
     18162       827  BUTH      DO2           -16.0317374093       -7.6236130790      -21.8518280284  BUTH      192             0.0000000000
     18163       827  BUTH      H1            -12.5983112326       -9.7427702015      -21.5462213360  BUTH      192             0.0000000000
     18164       827  BUTH      H2            -13.3676320232       -8.6857436516      -22.7779417921  BUTH      192             0.0000000000
     18165       827  BUTH      H3            -11.6764496888       -8.3805592725      -22.2952571175  BUTH      192             0.0000000000
     18166       827  BUTH      H4            -13.2591202194       -6.7369684478      -21.2600654519  BUTH      192             0.0000000000
     18167       827  BUTH      H5            -12.4238744218       -7.6876312063      -19.9959687744  BUTH      192             0.0000000000
     18168       827  BUTH      H6            -14.8768865761       -7.3227643902      -19.6341331030  BUTH      192             0.0000000000
     18169       827  BUTH      H7            -14.3431068754       -8.9962079443      -19.5494138604  BUTH      192             0.0000000000
     18170       827  BUTH      H8            -16.8825220734       -8.0272986692      -22.0865068535  BUTH      192             0.0000000000
     18171       827  BUTH      H9            -16.6276012416       -9.7842281969      -21.8232224833  BUTH      192             0.0000000000
     18172       827  BUTH      LPO11         -15.8007589391       -9.7771124280      -20.8955652438  BUTH      192             0.0000000000
     18173       827  BUTH      LPO12         -16.1751289158       -9.6466229323      -21.4204466597  BUTH      192             0.0000000000
     18174       827  BUTH      LPO21         -16.1616118086       -7.3606159719      -21.6200824886  BUTH      192             0.0000000000
     18175       827  BUTH      LPO22         -15.8924156994       -7.5874623752      -22.1757398045  BUTH      192             0.0000000000
     18176       828  BUTH      C1             15.1925204295       11.4282512681        6.8437631808  BUTH      193             0.0000000000
     18177       828  BUTH      DC1            15.2384581973       11.3895195652        6.8593428983  BUTH      193             0.0000000000
     18178       828  BUTH      C2             16.6187067643       11.0528909741        7.2493715359  BUTH      193             0.0000000000
     18179       828  BUTH      DC2            16.6586820956       10.9732596787        7.1473806919  BUTH      193             0.0000000000
     18180       828  BUTH      C3             16.8259451551       11.0389478206        8.7820472023  BUTH      193             0.0000000000
     18181       828  BUTH      DC3            16.8153638598       11.0119974248        8.7398417032  BUTH      193             0.0000000000
     18182       828  BUTH      C4             16.4180542409       12.1526203248        9.4707621124  BUTH      193             0.0000000000
     18183       828  BUTH      DC4            16.4284646235       12.0728731758        9.4625259332  BUTH      193             0.0000000000
     18184       828  BUTH      O1             15.3952229298       11.8969141971       10.1341941335  BUTH      193             0.0000000000
     18185       828  BUTH      DO1            15.4148487323       11.8969896206       10.1347610199  BUTH      193             0.0000000000
     18186       828  BUTH      O2             17.2712279277       12.9150343818       10.0020557685  BUTH      193             0.0000000000
     18187       828  BUTH      DO2            17.2773309635       12.8657691780       10.0185263596  BUTH      193             0.0000000000
     18188       828  BUTH      H1             14.4519844809       10.6877171904        7.2146227080  BUTH      193             0.0000000000
     18189       828  BUTH      H2             14.8959063242       12.4138344616        7.2620535598  BUTH      193             0.0000000000
     18190       828  BUTH      H3             15.0737382524       11.5068116666        5.7419283208  BUTH      193             0.0000000000
     18191       828  BUTH      H4             17.3159800889       11.8244814723        6.8585019739  BUTH      193             0.0000000000
     18192       828  BUTH      H5             16.8997302955       10.0685944501        6.8175068259  BUTH      193             0.0000000000
     18193       828  BUTH      H6             17.9128980871       10.8661591732        8.9336994633  BUTH      193             0.0000000000
     18194       828  BUTH      H7             16.3481203229       10.0919483586        9.1124960619  BUTH      193             0.0000000000
     18195       828  BUTH      H8             16.7674693788       13.7438117688        9.9860755522  BUTH      193             0.0000000000
     18196       828  BUTH      H9             15.1453493985       12.5913029830       10.7621658148  BUTH      193             0.0000000000
     18197       828  BUTH      LPO11          15.3018913936       11.5629955896       10.0863653982  BUTH      193             0.0000000000
     18198       828  BUTH      LPO12          15.2919704328       12.1816871230       10.3095318149  BUTH      193             0.0000000000
     18199       828  BUTH      LPO21          17.2589588354       12.8404688141       10.3438004766  BUTH      193             0.0000000000
     18200       828  BUTH      LPO22          17.5053045215       12.9787520353        9.7497698020  BUTH      193             0.0000000000
     18201       829  BUTH      C1            -20.6996085175       16.0122981469      -11.1979383960  BUTH      194             0.0000000000
     18202       829  BUTH      DC1           -20.7235314584       16.1068309039      -11.1532033052  BUTH      194             0.0000000000
     18203       829  BUTH      C2            -21.3368693751       17.0711368905      -12.0803243081  BUTH      194             0.0000000000
     18204       829  BUTH      DC2           -21.3546757547       17.0622148876      -12.1459514934  BUTH      194             0.0000000000
     18205       829  BUTH      C3            -20.9151329666       18.4846440495      -11.6719671808  BUTH      194             0.0000000000
     18206       829  BUTH      DC3           -20.9391622664       18.4960171399      -11.6010554612  BUTH      194             0.0000000000
     18207       829  BUTH      C4            -21.0524239927       18.6693999774      -10.3392310861  BUTH      194             0.0000000000
     18208       829  BUTH      DC4           -21.0739897966       18.6715098612      -10.3186280436  BUTH      194             0.0000000000
     18209       829  BUTH      O1            -20.0625639402       19.1597027355       -9.7973483047  BUTH      194             0.0000000000
     18210       829  BUTH      DO1           -20.1538952108       19.1860830809       -9.7714398995  BUTH      194             0.0000000000
     18211       829  BUTH      O2            -22.0606304714       19.1473979025       -9.8369762191  BUTH      194             0.0000000000
     18212       829  BUTH      DO2           -22.0955257874       19.1605082404       -9.8317230372  BUTH      194             0.0000000000
     18213       829  BUTH      H1            -19.5926106638       16.0095357755      -11.2921144073  BUTH      194             0.0000000000
     18214       829  BUTH      H2            -20.9633958906       16.1315147217      -10.1253132837  BUTH      194             0.0000000000
     18215       829  BUTH      H3            -21.0453551772       15.0024482479      -11.5061322138  BUTH      194             0.0000000000
     18216       829  BUTH      H4            -22.4417765466       16.9712995702      -12.0208797621  BUTH      194             0.0000000000
     18217       829  BUTH      H5            -21.0227431022       16.8899144852      -13.1304691193  BUTH      194             0.0000000000
     18218       829  BUTH      H6            -21.5363352323       19.1835222749      -12.2719654913  BUTH      194             0.0000000000
     18219       829  BUTH      H7            -19.8871816921       18.6154687623      -12.0726192392  BUTH      194             0.0000000000
     18220       829  BUTH      H8            -21.5159867212       19.6378237309       -9.2015663575  BUTH      194             0.0000000000
     18221       829  BUTH      H9            -20.1584884718       19.3110451364       -8.8450589779  BUTH      194             0.0000000000
     18222       829  BUTH      LPO11         -19.8118975714       19.2165804874      -10.0349010207  BUTH      194             0.0000000000
     18223       829  BUTH      LPO12         -20.1206192834       19.1982301035       -9.4543538163  BUTH      194             0.0000000000
     18224       829  BUTH      LPO21         -22.1639886889       19.3997643020      -10.0563578029  BUTH      194             0.0000000000
     18225       829  BUTH      LPO22         -22.1958034070       18.8931224702       -9.6380483880  BUTH      194             0.0000000000
     18226       830  BUTH      C1            -11.7716216784       22.1076680916      -25.4731199373  BUTH      195             0.0000000000
     18227       830  BUTH      DC1           -11.7513758684       22.1414832423      -25.4706886781  BUTH      195             0.0000000000
     18228       830  BUTH      C2            -12.2196222135       23.1790610475      -26.4601301498  BUTH      195             0.0000000000
     18229       830  BUTH      DC2           -12.2983318878       23.1408206077      -26.4644115797  BUTH      195             0.0000000000
     18230       830  BUTH      C3            -11.0305076585       23.9623549421      -27.0608636685  BUTH      195             0.0000000000
     18231       830  BUTH      DC3           -11.0327868771       23.9515403781      -27.0024836400  BUTH      195             0.0000000000
     18232       830  BUTH      C4            -10.1581604390       24.4881887613      -26.1575532458  BUTH      195             0.0000000000
     18233       830  BUTH      DC4           -10.1669562673       24.4774926349      -26.1582371877  BUTH      195             0.0000000000
     18234       830  BUTH      O1             -9.0507830488       23.9352916183      -26.0674810236  BUTH      195             0.0000000000
     18235       830  BUTH      DO1            -9.0606537028       23.9803968836      -26.0521069380  BUTH      195             0.0000000000
     18236       830  BUTH      O2            -10.2807561517       25.6312038382      -25.6812536878  BUTH      195             0.0000000000
     18237       830  BUTH      DO2           -10.2924600876       25.6208263483      -25.6854381200  BUTH      195             0.0000000000
     18238       830  BUTH      H1            -11.0512670262       21.4079931580      -25.9483726729  BUTH      195             0.0000000000
     18239       830  BUTH      H2            -11.2692797507       22.5744399041      -24.5989931371  BUTH      195             0.0000000000
     18240       830  BUTH      H3            -12.6280587352       21.5070928517      -25.0987592166  BUTH      195             0.0000000000
     18241       830  BUTH      H4            -12.8944555094       23.8937820620      -25.9423513401  BUTH      195             0.0000000000
     18242       830  BUTH      H5            -12.7912911439       22.7101260630      -27.2893560630  BUTH      195             0.0000000000
     18243       830  BUTH      H6            -11.4796069863       24.7545883436      -27.6972574393  BUTH      195             0.0000000000
     18244       830  BUTH      H7            -10.5547872095       23.2745571501      -27.7922631851  BUTH      195             0.0000000000
     18245       830  BUTH      H8             -9.3646347088       25.7689583725      -25.3937729229  BUTH      195             0.0000000000
     18246       830  BUTH      H9             -8.4218127926       24.3855325938      -25.4838368848  BUTH      195             0.0000000000
     18247       830  BUTH      LPO11          -9.0326672197       23.6664893069      -26.2909024508  BUTH      195             0.0000000000
     18248       830  BUTH      LPO12          -8.8552641205       24.0974292569      -25.8266829031  BUTH      195             0.0000000000
     18249       830  BUTH      LPO21         -10.2935627347       25.8437412073      -25.9590375213  BUTH      195             0.0000000000
     18250       830  BUTH      LPO22         -10.4385396615       25.5837619317      -25.3724598576  BUTH      195             0.0000000000
     18251       831  BUTH      C1             23.9166450245       16.5141761683      -18.2109252788  BUTH      196             0.0000000000
     18252       831  BUTH      DC1            23.9520683530       16.4979104276      -18.1913378291  BUTH      196             0.0000000000
     18253       831  BUTH      C2             24.8998558890       17.2838451072      -17.3342695818  BUTH      196             0.0000000000
     18254       831  BUTH      DC2            24.8414080623       17.3279116506      -17.2991484818  BUTH      196             0.0000000000
     18255       831  BUTH      C3             26.3470595317       17.1937485114      -17.8629569295  BUTH      196             0.0000000000
     18256       831  BUTH      DC3            26.3238413550       17.1487896955      -17.8582523807  BUTH      196             0.0000000000
     18257       831  BUTH      C4             26.7964301167       15.9241839376      -18.0574818128  BUTH      196             0.0000000000
     18258       831  BUTH      DC4            26.7891950061       15.9327188784      -18.0503220788  BUTH      196             0.0000000000
     18259       831  BUTH      O1             27.0445067154       15.5961163774      -19.2253368445  BUTH      196             0.0000000000
     18260       831  BUTH      DO1            27.0737282321       15.5672848051      -19.1693841645  BUTH      196             0.0000000000
     18261       831  BUTH      O2             27.4185798172       15.3031490477      -17.2006585996  BUTH      196             0.0000000000
     18262       831  BUTH      DO2            27.4184502530       15.3126675786      -17.1941188727  BUTH      196             0.0000000000
     18263       831  BUTH      H1             23.9666529637       16.8623643898      -19.2647683265  BUTH      196             0.0000000000
     18264       831  BUTH      H2             24.1427431817       15.4264351695      -18.2064369803  BUTH      196             0.0000000000
     18265       831  BUTH      H3             22.8696693732       16.6514147201      -17.8654856076  BUTH      196             0.0000000000
     18266       831  BUTH      H4             24.8720175930       16.8794700357      -16.2998485695  BUTH      196             0.0000000000
     18267       831  BUTH      H5             24.6011103187       18.3526963465      -17.2829947061  BUTH      196             0.0000000000
     18268       831  BUTH      H6             26.9718829920       17.7402828987      -17.1245689509  BUTH      196             0.0000000000
     18269       831  BUTH      H7             26.3795668840       17.8334206352      -18.7707475704  BUTH      196             0.0000000000
     18270       831  BUTH      H8             27.8219843764       14.6770158439      -17.8220457355  BUTH      196             0.0000000000
     18271       831  BUTH      H9             27.4437661513       14.7188314466      -19.3249563856  BUTH      196             0.0000000000
     18272       831  BUTH      LPO11          26.9800284258       15.8639757574      -19.4411930529  BUTH      196             0.0000000000
     18273       831  BUTH      LPO12          27.1569535513       15.2648212522      -19.2352992275  BUTH      196             0.0000000000
     18274       831  BUTH      LPO21          27.6919191979       15.5066381947      -17.1207977829  BUTH      196             0.0000000000
     18275       831  BUTH      LPO22          27.1802870130       15.1004767347      -17.0436857580  BUTH      196             0.0000000000
     18276       832  BUTH      C1             -9.7653875952      -25.8852132603      -25.8564591665  BUTH      197             0.0000000000
     18277       832  BUTH      DC1            -9.7735607652      -25.8519614713      -25.8653427133  BUTH      197             0.0000000000
     18278       832  BUTH      C2             -8.3072284790      -25.5538360868      -25.5708500495  BUTH      197             0.0000000000
     18279       832  BUTH      DC2            -8.3083470445      -25.6196094318      -25.5273064860  BUTH      197             0.0000000000
     18280       832  BUTH      C3             -7.9730942055      -24.0687574623      -25.8208090603  BUTH      197             0.0000000000
     18281       832  BUTH      DC3            -8.0229543626      -24.0950896549      -25.8636080413  BUTH      197             0.0000000000
     18282       832  BUTH      C4             -8.2698329345      -23.5368917752      -27.0407535535  BUTH      197             0.0000000000
     18283       832  BUTH      DC4            -8.2914732361      -23.5389872631      -27.0399017771  BUTH      197             0.0000000000
     18284       832  BUTH      O1             -9.2094527554      -22.7205844597      -27.0904195283  BUTH      197             0.0000000000
     18285       832  BUTH      DO1            -9.1904533882      -22.7201262594      -27.1274780653  BUTH      197             0.0000000000
     18286       832  BUTH      O2             -7.6641856050      -23.8017302438      -28.1060509874  BUTH      197             0.0000000000
     18287       832  BUTH      DO2            -7.6727668219      -23.8085684791      -28.1098458069  BUTH      197             0.0000000000
     18288       832  BUTH      H1            -10.4372140023      -25.2535662156      -25.2367880516  BUTH      197             0.0000000000
     18289       832  BUTH      H2            -10.0078184192      -25.7060791557      -26.9257857159  BUTH      197             0.0000000000
     18290       832  BUTH      H3             -9.9819950894      -26.9518352319      -25.6334798782  BUTH      197             0.0000000000
     18291       832  BUTH      H4             -7.6500823780      -26.1840674111      -26.2074727634  BUTH      197             0.0000000000
     18292       832  BUTH      H5             -8.0694524322      -25.7863436455      -24.5107916610  BUTH      197             0.0000000000
     18293       832  BUTH      H6             -6.8869309314      -24.0036835154      -25.5964528152  BUTH      197             0.0000000000
     18294       832  BUTH      H7             -8.4414898236      -23.5222533494      -24.9744877268  BUTH      197             0.0000000000
     18295       832  BUTH      H8             -8.0031272358      -23.0659070028      -28.6395139467  BUTH      197             0.0000000000
     18296       832  BUTH      H9             -9.4017643954      -22.3796416652      -27.9768366115  BUTH      197             0.0000000000
     18297       832  BUTH      LPO11          -9.3462664584      -22.6759820280      -26.7713699494  BUTH      197             0.0000000000
     18298       832  BUTH      LPO12          -9.2532302799      -22.6082958418      -27.4190147118  BUTH      197             0.0000000000
     18299       832  BUTH      LPO21          -7.3349080478      -23.6961017815      -28.0520239728  BUTH      197             0.0000000000
     18300       832  BUTH      LPO22          -7.8401705484      -24.0697510855      -28.2463867566  BUTH      197             0.0000000000
     18301       833  BUTH      C1              6.4397928926        4.0202340931        7.9124896846  BUTH      198             0.0000000000
     18302       833  BUTH      DC1             6.4943365867        3.9474175211        7.8542403829  BUTH      198             0.0000000000
     18303       833  BUTH      C2              7.5947204498        3.6580157276        6.9962773850  BUTH      198             0.0000000000
     18304       833  BUTH      DC2             7.6451180961        3.6858985324        6.9393153754  BUTH      198             0.0000000000
     18305       833  BUTH      C3              7.4796861943        2.2029426786        6.5057615188  BUTH      198             0.0000000000
     18306       833  BUTH      DC3             7.4744323280        2.1654263636        6.5069414417  BUTH      198             0.0000000000
     18307       833  BUTH      C4              7.2105484479        1.3010388586        7.4993519653  BUTH      198             0.0000000000
     18308       833  BUTH      DC4             7.2271060450        1.2837577346        7.4648939670  BUTH      198             0.0000000000
     18309       833  BUTH      O1              6.2080402479        0.6137449673        7.2405049560  BUTH      198             0.0000000000
     18310       833  BUTH      DO1             6.2475568043        0.5843826963        7.2417929372  BUTH      198             0.0000000000
     18311       833  BUTH      O2              8.1427392692        0.6252668978        8.0174837367  BUTH      198             0.0000000000
     18312       833  BUTH      DO2             8.1655688665        0.6016039195        7.9825610070  BUTH      198             0.0000000000
     18313       833  BUTH      H1              5.4536534205        3.9519690908        7.4053508150  BUTH      198             0.0000000000
     18314       833  BUTH      H2              6.3812518408        3.3483929075        8.7953958901  BUTH      198             0.0000000000
     18315       833  BUTH      H3              6.5306715635        5.0605664706        8.2916606375  BUTH      198             0.0000000000
     18316       833  BUTH      H4              8.5395233908        3.7831448423        7.5672512088  BUTH      198             0.0000000000
     18317       833  BUTH      H5              7.6195156737        4.3641088281        6.1388750691  BUTH      198             0.0000000000
     18318       833  BUTH      H6              8.4386223261        1.9955009026        5.9844838509  BUTH      198             0.0000000000
     18319       833  BUTH      H7              6.7194894781        2.2488268006        5.6968631321  BUTH      198             0.0000000000
     18320       833  BUTH      H8              7.6045221744        0.2021476221        8.7046463357  BUTH      198             0.0000000000
     18321       833  BUTH      H9              6.0476470612       -0.1025444265        7.8730905470  BUTH      198             0.0000000000
     18322       833  BUTH      LPO11           6.0748595089        0.7081560982        6.9309093664  BUTH      198             0.0000000000
     18323       833  BUTH      LPO12           6.1480872548        0.3869263065        7.5002335330  BUTH      198             0.0000000000
     18324       833  BUTH      LPO21           8.1937011278        0.3565760583        7.7990618474  BUTH      198             0.0000000000
     18325       833  BUTH      LPO22           8.3262337762        0.8536722971        8.2089536808  BUTH      198             0.0000000000
     18326       834  BUTH      C1             26.5945689328      -12.5863620753        7.5499635141  BUTH      199             0.0000000000
     18327       834  BUTH      DC1            26.5329657876      -12.5466734187        7.5217380686  BUTH      199             0.0000000000
     18328       834  BUTH      C2             25.6225150940      -11.7677615272        8.3795944513  BUTH      199             0.0000000000
     18329       834  BUTH      DC2            25.6310290366      -11.7453541993        8.4169451191  BUTH      199             0.0000000000
     18330       834  BUTH      C3             24.1705076555      -11.9870280214        7.9558397102  BUTH      199             0.0000000000
     18331       834  BUTH      DC3            24.1413744384      -11.9737608055        7.9153206271  BUTH      199             0.0000000000
     18332       834  BUTH      C4             23.9566742242      -11.6788749341        6.6489738504  BUTH      199             0.0000000000
     18333       834  BUTH      DC4            23.9458418110      -11.6726532790        6.6541851531  BUTH      199             0.0000000000
     18334       834  BUTH      O1             23.2955011780      -12.5281931542        6.0390803478  BUTH      199             0.0000000000
     18335       834  BUTH      DO1            23.2692941878      -12.4653549064        6.0347000597  BUTH      199             0.0000000000
     18336       834  BUTH      O2             23.6491697137      -10.5272141010        6.3191141400  BUTH      199             0.0000000000
     18337       834  BUTH      DO2            23.6363671517      -10.5220017898        6.3368477939  BUTH      199             0.0000000000
     18338       834  BUTH      H1             26.3379993454      -13.6652410129        7.6171445099  BUTH      199             0.0000000000
     18339       834  BUTH      H2             26.5860389644      -12.2855732318        6.4804896659  BUTH      199             0.0000000000
     18340       834  BUTH      H3             27.6355696702      -12.4859020261        7.9248584904  BUTH      199             0.0000000000
     18341       834  BUTH      H4             25.8401070483      -10.6853381367        8.2557625287  BUTH      199             0.0000000000
     18342       834  BUTH      H5             25.7426658527      -12.0162012406        9.4557740396  BUTH      199             0.0000000000
     18343       834  BUTH      H6             23.5989014852      -11.3280755302        8.6438578795  BUTH      199             0.0000000000
     18344       834  BUTH      H7             23.9192118862      -13.0220594429        8.2718798861  BUTH      199             0.0000000000
     18345       834  BUTH      H8             23.2248950725      -10.7709102931        5.4815562645  BUTH      199             0.0000000000
     18346       834  BUTH      H9             23.0912893420      -12.2980641871        5.1202228046  BUTH      199             0.0000000000
     18347       834  BUTH      LPO11          23.2107794185      -12.7910242813        6.2541199304  BUTH      199             0.0000000000
     18348       834  BUTH      LPO12          23.2522689908      -12.4297268917        5.7060107257  BUTH      199             0.0000000000
     18349       834  BUTH      LPO21          23.3704863000      -10.4474875870        6.5152753947  BUTH      199             0.0000000000
     18350       834  BUTH      LPO22          23.9466229515      -10.3826486181        6.2045611282  BUTH      199             0.0000000000
     18351       835  BUTH      C1             -8.0725029398        2.1447636428      -24.0010233654  BUTH      200             0.0000000000
     18352       835  BUTH      DC1            -7.9971025266        2.1800227498      -24.0374474977  BUTH      200             0.0000000000
     18353       835  BUTH      C2             -8.5805616813        2.8595045351      -25.2361118188  BUTH      200             0.0000000000
     18354       835  BUTH      DC2            -8.6209768495        2.8201498719      -25.2342302371  BUTH      200             0.0000000000
     18355       835  BUTH      C3             -7.4746584086        3.0661846740      -26.2985160835  BUTH      200             0.0000000000
     18356       835  BUTH      DC3            -7.4083760201        3.0911461665      -26.2561894814  BUTH      200             0.0000000000
     18357       835  BUTH      C4             -6.3482316327        3.7108654417      -25.9009383425  BUTH      200             0.0000000000
     18358       835  BUTH      DC4            -6.2991564090        3.7001855356      -25.8823699110  BUTH      200             0.0000000000
     18359       835  BUTH      O1             -5.2779822311        3.1245499032      -26.1652306973  BUTH      200             0.0000000000
     18360       835  BUTH      DO1            -5.2376768207        3.1522255215      -26.1640078414  BUTH      200             0.0000000000
     18361       835  BUTH      O2             -6.2875549854        4.9592961232      -25.7849994486  BUTH      200             0.0000000000
     18362       835  BUTH      DO2            -6.2683530178        4.9408812104      -25.7759049623  BUTH      200             0.0000000000
     18363       835  BUTH      H1             -7.5795628352        1.1806331679      -24.2495861969  BUTH      200             0.0000000000
     18364       835  BUTH      H2             -7.3551021803        2.8106409127      -23.4754145643  BUTH      200             0.0000000000
     18365       835  BUTH      H3             -8.8983913897        1.9276117441      -23.2903375541  BUTH      200             0.0000000000
     18366       835  BUTH      H4             -8.9835054451        3.8459309787      -24.9215960075  BUTH      200             0.0000000000
     18367       835  BUTH      H5             -9.4275057724        2.2944602710      -25.6807821306  BUTH      200             0.0000000000
     18368       835  BUTH      H6             -7.9549230076        3.6490490941      -27.1133387536  BUTH      200             0.0000000000
     18369       835  BUTH      H7             -7.3211353173        2.0670303067      -26.7594306209  BUTH      200             0.0000000000
     18370       835  BUTH      H8             -5.5123157772        5.1657955563      -26.3302169778  BUTH      200             0.0000000000
     18371       835  BUTH      H9             -4.4806465541        3.6241811814      -25.9337454831  BUTH      200             0.0000000000
     18372       835  BUTH      LPO11          -5.3442442068        2.8228809862      -26.3298673125  BUTH      200             0.0000000000
     18373       835  BUTH      LPO12          -5.0065073464        3.3137968772      -26.0512703104  BUTH      200             0.0000000000
     18374       835  BUTH      LPO21          -6.5417269220        5.0806525097      -25.9927715693  BUTH      200             0.0000000000
     18375       835  BUTH      LPO22          -6.1533562109        5.0128772345      -25.4662209151  BUTH      200             0.0000000000
     18376       836  BUTH      C1            -22.2821728026      -13.9204221426        1.0240103652  BUTH      201             0.0000000000
     18377       836  BUTH      DC1           -22.2978793603      -13.9431236264        1.0363816748  BUTH      201             0.0000000000
     18378       836  BUTH      C2            -22.2473246503      -14.8676271189       -0.1351739801  BUTH      201             0.0000000000
     18379       836  BUTH      DC2           -22.1973256730      -14.7965896450       -0.1673133774  BUTH      201             0.0000000000
     18380       836  BUTH      C3            -23.6049465740      -15.5722521577       -0.2815633736  BUTH      201             0.0000000000
     18381       836  BUTH      DC3           -23.6044003766      -15.5547351394       -0.2480960154  BUTH      201             0.0000000000
     18382       836  BUTH      C4            -24.0636287736      -16.1466936725        0.8599506888  BUTH      201             0.0000000000
     18383       836  BUTH      DC4           -24.0508498062      -16.1357512930        0.8452563118  BUTH      201             0.0000000000
     18384       836  BUTH      O1            -25.1392655707      -15.6940162469        1.2631587499  BUTH      201             0.0000000000
     18385       836  BUTH      DO1           -25.1106186672      -15.7617680804        1.2617934261  BUTH      201             0.0000000000
     18386       836  BUTH      O2            -23.8938928124      -17.3217735245        1.1223055620  BUTH      201             0.0000000000
     18387       836  BUTH      DO2           -23.8995525554      -17.3130783697        1.1100571832  BUTH      201             0.0000000000
     18388       836  BUTH      H1            -23.1594114965      -13.2519179261        0.8903115002  BUTH      201             0.0000000000
     18389       836  BUTH      H2            -22.4024395110      -14.4498119791        1.9933417438  BUTH      201             0.0000000000
     18390       836  BUTH      H3            -21.3439331009      -13.3258666443        1.0470543210  BUTH      201             0.0000000000
     18391       836  BUTH      H4            -21.4368517000      -15.6054685855        0.0466076681  BUTH      201             0.0000000000
     18392       836  BUTH      H5            -21.9767027166      -14.3004842623       -1.0513801519  BUTH      201             0.0000000000
     18393       836  BUTH      H6            -23.4785922233      -16.3285783943       -1.0855075274  BUTH      201             0.0000000000
     18394       836  BUTH      H7            -24.2900609992      -14.8154452645       -0.7199496767  BUTH      201             0.0000000000
     18395       836  BUTH      H8            -24.6686498709      -17.4093612881        1.6993496539  BUTH      201             0.0000000000
     18396       836  BUTH      H9            -25.5205042614      -16.1732929019        2.0140994591  BUTH      201             0.0000000000
     18397       836  BUTH      LPO11         -25.2517215703      -15.4424790987        1.0473284665  BUTH      201             0.0000000000
     18398       836  BUTH      LPO12         -25.2353802979      -15.8577772424        1.5571728577  BUTH      201             0.0000000000
     18399       836  BUTH      LPO21         -24.0008815416      -17.4945217853        0.8373293346  BUTH      201             0.0000000000
     18400       836  BUTH      LPO22         -23.6335324165      -17.3256178596        1.3561809248  BUTH      201             0.0000000000
     18401       837  BUTH      C1            -25.4182214205       -5.1478664516      -19.6421522127  BUTH      202             0.0000000000
     18402       837  BUTH      DC1           -25.4073646547       -5.2087857023      -19.5933375984  BUTH      202             0.0000000000
     18403       837  BUTH      C2            -26.3366388401       -6.2737025919      -19.1842042121  BUTH      202             0.0000000000
     18404       837  BUTH      DC2           -26.3846503272       -6.2648769324      -19.1804964033  BUTH      202             0.0000000000
     18405       837  BUTH      C3            -25.7996980843       -6.9947391190      -17.9321068501  BUTH      202             0.0000000000
     18406       837  BUTH      DC3           -25.7364326896       -6.9987090947      -17.9172137233  BUTH      202             0.0000000000
     18407       837  BUTH      C4            -24.5011381817       -7.3858906386      -18.0498139217  BUTH      202             0.0000000000
     18408       837  BUTH      DC4           -24.4896275277       -7.3906532984      -18.0369841667  BUTH      202             0.0000000000
     18409       837  BUTH      O1            -23.7275500759       -6.7734698621      -17.3056563778  BUTH      202             0.0000000000
     18410       837  BUTH      DO1           -23.7079966522       -6.8362800651      -17.2953826480  BUTH      202             0.0000000000
     18411       837  BUTH      O2            -24.1584199629       -8.5609312985      -18.1616934970  BUTH      202             0.0000000000
     18412       837  BUTH      DO2           -24.1591721867       -8.5709547236      -18.1423169466  BUTH      202             0.0000000000
     18413       837  BUTH      H1            -25.3364275227       -4.3466484830      -18.8768545403  BUTH      202             0.0000000000
     18414       837  BUTH      H2            -24.3918289797       -5.5133446410      -19.8595579405  BUTH      202             0.0000000000
     18415       837  BUTH      H3            -25.7961081909       -4.6752646162      -20.5739086700  BUTH      202             0.0000000000
     18416       837  BUTH      H4            -26.4393661646       -7.0109437917      -20.0089729738  BUTH      202             0.0000000000
     18417       837  BUTH      H5            -27.3510052434       -5.8680964036      -18.9820522357  BUTH      202             0.0000000000
     18418       837  BUTH      H6            -26.4922548730       -7.8431343977      -17.7452605316  BUTH      202             0.0000000000
     18419       837  BUTH      H7            -26.0020724824       -6.2869316839      -17.1000165678  BUTH      202             0.0000000000
     18420       837  BUTH      H8            -23.2454878631       -8.4065247079      -17.8725333581  BUTH      202             0.0000000000
     18421       837  BUTH      H9            -22.8216754584       -7.1172577446      -17.2929257332  BUTH      202             0.0000000000
     18422       837  BUTH      LPO11         -23.9048029543       -6.5392079518      -17.1153861109  BUTH      202             0.0000000000
     18423       837  BUTH      LPO12         -23.4004316337       -6.8890888095      -17.3517626006  BUTH      202             0.0000000000
     18424       837  BUTH      LPO21         -24.2931661168       -8.7226543952      -17.8820703327  BUTH      202             0.0000000000
     18425       837  BUTH      LPO22         -24.1146164827       -8.6112400226      -18.5052779661  BUTH      202             0.0000000000
     18426       838  BUTH      C1            -10.8909078304      -22.8928893082       -7.3256499585  BUTH      203             0.0000000000
     18427       838  BUTH      DC1           -10.9174111814      -22.8552308035       -7.3754970915  BUTH      203             0.0000000000
     18428       838  BUTH      C2            -10.5426040943      -22.2679302453       -8.6730296586  BUTH      203             0.0000000000
     18429       838  BUTH      DC2           -10.4698477840      -22.2325673935       -8.6620547585  BUTH      203             0.0000000000
     18430       838  BUTH      C3            -11.7900287702      -21.7433997235       -9.4164401005  BUTH      203             0.0000000000
     18431       838  BUTH      DC3           -11.8047684155      -21.7641182196       -9.4032263288  BUTH      203             0.0000000000
     18432       838  BUTH      C4            -12.8180510488      -22.6344266722       -9.5209650933  BUTH      203             0.0000000000
     18433       838  BUTH      DC4           -12.8036428533      -22.6251514818       -9.5179606561  BUTH      203             0.0000000000
     18434       838  BUTH      O1            -13.8480006500      -22.3020610402       -8.9155616370  BUTH      203             0.0000000000
     18435       838  BUTH      DO1           -13.8444221264      -22.3250268363       -8.9671739329  BUTH      203             0.0000000000
     18436       838  BUTH      O2            -13.0050789523      -23.2887287354      -10.5552335234  BUTH      203             0.0000000000
     18437       838  BUTH      DO2           -12.9931435371      -23.2780819928      -10.5526779905  BUTH      203             0.0000000000
     18438       838  BUTH      H1            -11.3918537903      -22.1642314629       -6.6530193831  BUTH      203             0.0000000000
     18439       838  BUTH      H2            -11.5779282934      -23.7581686243       -7.4423358159  BUTH      203             0.0000000000
     18440       838  BUTH      H3             -9.9849825523      -23.2724338995       -6.8064522181  BUTH      203             0.0000000000
     18441       838  BUTH      H4            -10.0509349547      -23.0369915220       -9.3063757023  BUTH      203             0.0000000000
     18442       838  BUTH      H5             -9.8150091744      -21.4397308913       -8.5351439643  BUTH      203             0.0000000000
     18443       838  BUTH      H6            -11.4257220503      -21.4205711440      -10.4151309046  BUTH      203             0.0000000000
     18444       838  BUTH      H7            -12.0582666744      -20.7942558878       -8.9050738839  BUTH      203             0.0000000000
     18445       838  BUTH      H8            -13.9610664601      -23.4197035652      -10.4560696239  BUTH      203             0.0000000000
     18446       838  BUTH      H9            -14.6090067316      -22.8818055510       -9.0695974973  BUTH      203             0.0000000000
     18447       838  BUTH      LPO11         -13.7992874322      -21.9940894569       -8.7565631266  BUTH      203             0.0000000000
     18448       838  BUTH      LPO12         -14.0955608924      -22.5458645156       -8.9576780438  BUTH      203             0.0000000000
     18449       838  BUTH      LPO21         -12.9976729646      -23.0530477228      -10.8138831159  BUTH      203             0.0000000000
     18450       838  BUTH      LPO22         -12.8869252398      -23.6098613246      -10.4816566225  BUTH      203             0.0000000000
     18451       839  BUTH      C1            -25.9805762988       27.1035343285      -13.2331205373  BUTH      204             0.0000000000
     18452       839  BUTH      DC1           -25.9417723163       27.0915364716      -13.2200930157  BUTH      204             0.0000000000
     18453       839  BUTH      C2            -25.8709813419       25.8450637165      -12.3783526615  BUTH      204             0.0000000000
     18454       839  BUTH      DC2           -25.9397334861       25.8455986439      -12.3676193441  BUTH      204             0.0000000000
     18455       839  BUTH      C3            -24.5068866200       25.7187505164      -11.6639367718  BUTH      204             0.0000000000
     18456       839  BUTH      DC3           -24.5017612686       25.7333800637      -11.6976223356  BUTH      204             0.0000000000
     18457       839  BUTH      C4            -23.4150761346       25.8231980478      -12.4711990640  BUTH      204             0.0000000000
     18458       839  BUTH      DC4           -23.4310205308       25.8291936624      -12.4676233411  BUTH      204             0.0000000000
     18459       839  BUTH      O1            -22.7221057488       26.8381626334      -12.2965485399  BUTH      204             0.0000000000
     18460       839  BUTH      DO1           -22.7063143016       26.7933363660      -12.3122991023  BUTH      204             0.0000000000
     18461       839  BUTH      O2            -22.8454841242       24.8245314946      -12.9398008315  BUTH      204             0.0000000000
     18462       839  BUTH      DO2           -22.8605079131       24.8310107802      -12.9309200292  BUTH      204             0.0000000000
     18463       839  BUTH      H1            -25.8183411086       28.0169847577      -12.6218848573  BUTH      204             0.0000000000
     18464       839  BUTH      H2            -25.2257667590       27.1031864516      -14.0483404087  BUTH      204             0.0000000000
     18465       839  BUTH      H3            -26.9849933014       27.1811802305      -13.7015632759  BUTH      204             0.0000000000
     18466       839  BUTH      H4            -26.0204661735       24.9529834534      -13.0234635739  BUTH      204             0.0000000000
     18467       839  BUTH      H5            -26.6854994727       25.8404358130      -11.6228000174  BUTH      204             0.0000000000
     18468       839  BUTH      H6            -24.5300372191       24.7354389170      -11.1473292338  BUTH      204             0.0000000000
     18469       839  BUTH      H7            -24.5304541053       26.4569321559      -10.8339648196  BUTH      204             0.0000000000
     18470       839  BUTH      H8            -21.9589393183       25.1984765411      -13.0626967638  BUTH      204             0.0000000000
     18471       839  BUTH      H9            -21.9007318302       26.8593787908      -12.8102174624  BUTH      204             0.0000000000
     18472       839  BUTH      LPO11         -22.8601871138       27.0350875402      -12.0422768000  BUTH      204             0.0000000000
     18473       839  BUTH      LPO12         -22.4503702906       26.8369952569      -12.5171352076  BUTH      204             0.0000000000
     18474       839  BUTH      LPO21         -22.7892433943       24.6157290679      -12.6645944964  BUTH      204             0.0000000000
     18475       839  BUTH      LPO22         -22.9540388523       24.8067803088      -13.2720669393  BUTH      204             0.0000000000
     18476       840  BUTH      C1             -4.3250215279       21.9767879866       23.7185998952  BUTH      205             0.0000000000
     18477       840  BUTH      DC1            -4.2207856412       21.9300548110       23.7858649024  BUTH      205             0.0000000000
     18478       840  BUTH      C2             -4.0570534980       20.6328911088       24.3759685959  BUTH      205             0.0000000000
     18479       840  BUTH      DC2            -4.0620940036       20.5769456051       24.4247723146  BUTH      205             0.0000000000
     18480       840  BUTH      C3             -2.9343926170       20.7461589411       25.4111905233  BUTH      205             0.0000000000
     18481       840  BUTH      DC3            -2.8516284461       20.7843777406       25.4270447565  BUTH      205             0.0000000000
     18482       840  BUTH      C4             -1.9211058169       21.5555397305       24.9983030033  BUTH      205             0.0000000000
     18483       840  BUTH      DC4            -1.8789311476       21.5632920901       25.0112353176  BUTH      205             0.0000000000
     18484       840  BUTH      O1             -1.7371111525       22.5573788383       25.7069394619  BUTH      205             0.0000000000
     18485       840  BUTH      DO1            -1.6383379911       22.5210002723       25.6986956003  BUTH      205             0.0000000000
     18486       840  BUTH      O2             -0.8080111295       21.1129132426       24.7401427254  BUTH      205             0.0000000000
     18487       840  BUTH      DO2            -0.7720504333       21.0961934971       24.7679517348  BUTH      205             0.0000000000
     18488       840  BUTH      H1             -4.7490338298       22.7036984292       24.4439520691  BUTH      205             0.0000000000
     18489       840  BUTH      H2             -3.4282653847       22.4277546489       23.2423872421  BUTH      205             0.0000000000
     18490       840  BUTH      H3             -5.0817329664       21.8822099910       22.9106619012  BUTH      205             0.0000000000
     18491       840  BUTH      H4             -3.7890758895       19.8992070816       23.5858947072  BUTH      205             0.0000000000
     18492       840  BUTH      H5             -4.9939951852       20.2458185682       24.8305410584  BUTH      205             0.0000000000
     18493       840  BUTH      H6             -2.6199431561       19.7025565016       25.6264496369  BUTH      205             0.0000000000
     18494       840  BUTH      H7             -3.4561600082       21.0851839249       26.3315936143  BUTH      205             0.0000000000
     18495       840  BUTH      H8             -0.3993032759       21.9751198957       24.9146637202  BUTH      205             0.0000000000
     18496       840  BUTH      H9             -0.9364438229       23.0598657659       25.4938673725  BUTH      205             0.0000000000
     18497       840  BUTH      LPO11          -1.9664137486       22.5607355054       25.9713426619  BUTH      205             0.0000000000
     18498       840  BUTH      LPO12          -1.4723078724       22.7473211111       25.5792634820  BUTH      205             0.0000000000
     18499       840  BUTH      LPO21          -0.7131956332       20.9288212442       25.0223131664  BUTH      205             0.0000000000
     18500       840  BUTH      LPO22          -0.7936501520       21.0947625605       24.3909088280  BUTH      205             0.0000000000
     18501       841  BUTH      C1            -24.2075707656       19.9697577969        4.1712021290  BUTH      206             0.0000000000
     18502       841  BUTH      DC1           -24.3020415024       19.9955475507        4.1820556849  BUTH      206             0.0000000000
     18503       841  BUTH      C2            -25.1435005380       20.8818944990        4.9507704030  BUTH      206             0.0000000000
     18504       841  BUTH      DC2           -25.1157129600       20.9565621343        4.9926193556  BUTH      206             0.0000000000
     18505       841  BUTH      C3            -26.3902359908       20.1012398543        5.3920968494  BUTH      206             0.0000000000
     18506       841  BUTH      DC3           -26.4213850107       20.1012163823        5.3400547498  BUTH      206             0.0000000000
     18507       841  BUTH      C4            -27.0003495586       19.5008698662        4.3373530939  BUTH      206             0.0000000000
     18508       841  BUTH      DC4           -27.0148498928       19.5143288284        4.3265180333  BUTH      206             0.0000000000
     18509       841  BUTH      O1            -27.1391762926       18.2749245944        4.3958789709  BUTH      206             0.0000000000
     18510       841  BUTH      DO1           -27.2203301330       18.3313839710        4.3472148887  BUTH      206             0.0000000000
     18511       841  BUTH      O2            -27.9764423851       19.9855711872        3.8000044000  BUTH      206             0.0000000000
     18512       841  BUTH      DO2           -27.9979888968       20.0023236975        3.8017342197  BUTH      206             0.0000000000
     18513       841  BUTH      H1            -24.0127371325       19.0286889955        4.7286520074  BUTH      206             0.0000000000
     18514       841  BUTH      H2            -24.6166333487       19.6969401956        3.1749293952  BUTH      206             0.0000000000
     18515       841  BUTH      H3            -23.2131285435       20.4367231444        4.0058267030  BUTH      206             0.0000000000
     18516       841  BUTH      H4            -25.4392999399       21.7426373606        4.3136319248  BUTH      206             0.0000000000
     18517       841  BUTH      H5            -24.6192439902       21.2778946916        5.8466833003  BUTH      206             0.0000000000
     18518       841  BUTH      H6            -27.0404741994       20.8327173225        5.9178838655  BUTH      206             0.0000000000
     18519       841  BUTH      H7            -26.0445965979       19.4047981640        6.1857109761  BUTH      206             0.0000000000
     18520       841  BUTH      H8            -28.3035474449       19.0985025887        3.5831828568  BUTH      206             0.0000000000
     18521       841  BUTH      H9            -27.6546317957       17.8897138542        3.6713934224  BUTH      206             0.0000000000
     18522       841  BUTH      LPO11         -27.0057415952       18.1535251989        4.6958079097  BUTH      206             0.0000000000
     18523       841  BUTH      LPO12         -27.2995199434       18.1586975391        4.1072941736  BUTH      206             0.0000000000
     18524       841  BUTH      LPO21         -28.1888699334       20.0814344662        4.0611265332  BUTH      206             0.0000000000
     18525       841  BUTH      LPO22         -27.8641917658       20.1014525739        3.4894061020  BUTH      206             0.0000000000
     18526       842  BUTH      C1             -1.2033960238      -23.4584872058      -10.1028440413  BUTH      207             0.0000000000
     18527       842  BUTH      DC1            -1.2372364548      -23.4473490941      -10.0904264084  BUTH      207             0.0000000000
     18528       842  BUTH      C2             -2.4176877536      -24.3435992721      -10.3638632369  BUTH      207             0.0000000000
     18529       842  BUTH      DC2            -2.3775200545      -24.3834524259      -10.4021792587  BUTH      207             0.0000000000
     18530       842  BUTH      C3             -3.7502858996      -23.5663196169      -10.2867132069  BUTH      207             0.0000000000
     18531       842  BUTH      DC3            -3.7253762168      -23.5439759198      -10.2252478457  BUTH      207             0.0000000000
     18532       842  BUTH      C4             -3.9094546869      -22.8548423145       -9.1378514923  BUTH      207             0.0000000000
     18533       842  BUTH      DC4            -3.9097271969      -22.8522802237       -9.1286802874  BUTH      207             0.0000000000
     18534       842  BUTH      O1             -3.9858455770      -21.6274361838       -9.2395089753  BUTH      207             0.0000000000
     18535       842  BUTH      DO1            -4.0250705289      -21.6523769011       -9.1760156558  BUTH      207             0.0000000000
     18536       842  BUTH      O2             -4.5115008311      -23.2580538049       -8.1736095298  BUTH      207             0.0000000000
     18537       842  BUTH      DO2            -4.5192236570      -23.2652815146       -8.1740840399  BUTH      207             0.0000000000
     18538       842  BUTH      H1             -1.1663259625      -22.6104645243      -10.8196455093  BUTH      207             0.0000000000
     18539       842  BUTH      H2             -1.2267672952      -23.0311445556       -9.0775864914  BUTH      207             0.0000000000
     18540       842  BUTH      H3             -0.2615145033      -24.0385142948      -10.2065203519  BUTH      207             0.0000000000
     18541       842  BUTH      H4             -2.4325905409      -25.1699686895       -9.6214263756  BUTH      207             0.0000000000
     18542       842  BUTH      H5             -2.3358399696      -24.8139957243      -11.3670327732  BUTH      207             0.0000000000
     18543       842  BUTH      H6             -4.5427561257      -24.3311135365      -10.4330081231  BUTH      207             0.0000000000
     18544       842  BUTH      H7             -3.8027940577      -22.9549518553      -11.2128845483  BUTH      207             0.0000000000
     18545       842  BUTH      H8             -4.7097755327      -22.3694243848       -7.8390577455  BUTH      207             0.0000000000
     18546       842  BUTH      H9             -4.1920829304      -21.1654737056       -8.4130600514  BUTH      207             0.0000000000
     18547       842  BUTH      LPO11          -3.9604659933      -21.5333506809       -9.5756693460  BUTH      207             0.0000000000
     18548       842  BUTH      LPO12          -4.0260464078      -21.4833821726       -8.9230720383  BUTH      207             0.0000000000
     18549       842  BUTH      LPO21          -4.8233879833      -23.3587639745       -8.2964259215  BUTH      207             0.0000000000
     18550       842  BUTH      LPO22          -4.2643710681      -23.3645307607       -7.9498026083  BUTH      207             0.0000000000
     18551       843  BUTH      C1            -24.3586921257       27.4754430353      -17.4236270387  BUTH      208             0.0000000000
     18552       843  BUTH      DC1           -24.3882855679       27.4403393980      -17.4437724462  BUTH      208             0.0000000000
     18553       843  BUTH      C2            -24.0238389287       26.3491316322      -18.3966575933  BUTH      208             0.0000000000
     18554       843  BUTH      DC2           -23.9648490391       26.3801395005      -18.4278577143  BUTH      208             0.0000000000
     18555       843  BUTH      C3            -25.2842218921       25.6449664754      -18.9430978543  BUTH      208             0.0000000000
     18556       843  BUTH      DC3           -25.2965008327       25.6525034078      -18.9160496359  BUTH      208             0.0000000000
     18557       843  BUTH      C4            -26.1634306465       25.2257730957      -17.9894625258  BUTH      208             0.0000000000
     18558       843  BUTH      DC4           -26.1517444132       25.2332751964      -17.9978544073  BUTH      208             0.0000000000
     18559       843  BUTH      O1            -27.2589939853       25.8054525308      -17.9967589426  BUTH      208             0.0000000000
     18560       843  BUTH      DO1           -27.2490309079       25.7467388250      -17.9830786123  BUTH      208             0.0000000000
     18561       843  BUTH      O2            -26.1972953321       24.0571192118      -17.6000897045  BUTH      208             0.0000000000
     18562       843  BUTH      DO2           -26.1937925906       24.0634237654      -17.6134401962  BUTH      208             0.0000000000
     18563       843  BUTH      H1            -25.0054220547       28.2426160473      -17.9006039451  BUTH      208             0.0000000000
     18564       843  BUTH      H2            -24.8959754600       27.0911844472      -16.5303225231  BUTH      208             0.0000000000
     18565       843  BUTH      H3            -23.4372379190       27.9815461495      -17.0643182819  BUTH      208             0.0000000000
     18566       843  BUTH      H4            -23.3964401488       25.5974091904      -17.8716765046  BUTH      208             0.0000000000
     18567       843  BUTH      H5            -23.4233353279       26.7457653214      -19.2430606559  BUTH      208             0.0000000000
     18568       843  BUTH      H6            -24.9078953476       24.7971893949      -19.5546314632  BUTH      208             0.0000000000
     18569       843  BUTH      H7            -25.7178702400       26.3476384060      -19.6864162714  BUTH      208             0.0000000000
     18570       843  BUTH      H8            -27.1181560334       24.0592613599      -17.2952766790  BUTH      208             0.0000000000
     18571       843  BUTH      H9            -27.9159822249       25.4342949231      -17.3888366742  BUTH      208             0.0000000000
     18572       843  BUTH      LPO11         -27.2661706881       26.0446360150      -18.2521796853  BUTH      208             0.0000000000
     18573       843  BUTH      LPO12         -27.4634308329       25.6782370352      -17.7427475393  BUTH      208             0.0000000000
     18574       843  BUTH      LPO21         -26.2241271008       23.8653060154      -17.8916162966  BUTH      208             0.0000000000
     18575       843  BUTH      LPO22         -26.0261274592       24.0584150496      -17.2948031505  BUTH      208             0.0000000000
     18576       844  BUTH      C1              3.7200009797      -23.9706839595      -12.8139045455  BUTH      209             0.0000000000
     18577       844  BUTH      DC1             3.7234414894      -23.9791037934      -12.7965076336  BUTH      209             0.0000000000
     18578       844  BUTH      C2              2.5072178608      -23.8189942210      -13.7256147059  BUTH      209             0.0000000000
     18579       844  BUTH      DC2             2.5560069854      -23.7557031452      -13.7354291815  BUTH      209             0.0000000000
     18580       844  BUTH      C3              1.2722581948      -24.6045312371      -13.2323231889  BUTH      209             0.0000000000
     18581       844  BUTH      DC3             1.3131792529      -24.6196810533      -13.2129762855  BUTH      209             0.0000000000
     18582       844  BUTH      C4              1.4866570696      -25.8958252863      -12.8433056590  BUTH      209             0.0000000000
     18583       844  BUTH      DC4             1.4911129096      -25.8754201638      -12.8391181671  BUTH      209             0.0000000000
     18584       844  BUTH      O1              1.4730452300      -26.0845340704      -11.6184742678  BUTH      209             0.0000000000
     18585       844  BUTH      DO1             1.4609046585      -26.1218391083      -11.6573392861  BUTH      209             0.0000000000
     18586       844  BUTH      O2              1.1823980412      -26.8728216660      -13.5232429694  BUTH      209             0.0000000000
     18587       844  BUTH      DO2             1.1768991702      -26.8593403621      -13.5093791736  BUTH      209             0.0000000000
     18588       844  BUTH      H1              3.4812742140      -23.6926141037      -11.7650920328  BUTH      209             0.0000000000
     18589       844  BUTH      H2              4.0669735921      -25.0259115995      -12.7932736031  BUTH      209             0.0000000000
     18590       844  BUTH      H3              4.5567531132      -23.3330959689      -13.1711837386  BUTH      209             0.0000000000
     18591       844  BUTH      H4              2.7658205846      -24.1881851436      -14.7410671640  BUTH      209             0.0000000000
     18592       844  BUTH      H5              2.2293920112      -22.7482948974      -13.8292330232  BUTH      209             0.0000000000
     18593       844  BUTH      H6              0.5444535586      -24.5338062402      -14.0687557247  BUTH      209             0.0000000000
     18594       844  BUTH      H7              0.8198956763      -23.9704684827      -12.4400772830  BUTH      209             0.0000000000
     18595       844  BUTH      H8              1.1248924467      -27.5215548963      -12.8043978522  BUTH      209             0.0000000000
     18596       844  BUTH      H9              1.5040209010      -27.0177299504      -11.3593469681  BUTH      209             0.0000000000
     18597       844  BUTH      LPO11           1.4130297754      -25.7828257348      -11.4515304885  BUTH      209             0.0000000000
     18598       844  BUTH      LPO12           1.5304312051      -26.4226963961      -11.5488101353  BUTH      209             0.0000000000
     18599       844  BUTH      LPO21           0.8436015239      -26.8279534311      -13.5987662201  BUTH      209             0.0000000000
     18600       844  BUTH      LPO22           1.4806708367      -26.9715997667      -13.6774383852  BUTH      209             0.0000000000
     18601       845  BUTH      C1             -9.9204110545       25.2064707466       26.1040721549  BUTH      210             0.0000000000
     18602       845  BUTH      DC1            -9.9625372733       25.2433325863       26.0786236724  BUTH      210             0.0000000000
     18603       845  BUTH      C2             -9.6264671588       26.6978592836       25.9717574043  BUTH      210             0.0000000000
     18604       845  BUTH      DC2            -9.6319675991       26.7211694172       26.0356448991  BUTH      210             0.0000000000
     18605       845  BUTH      C3            -10.4648895927       27.3771164712       24.8710629249  BUTH      210             0.0000000000
     18606       845  BUTH      DC3           -10.4700218768       27.3467131361       24.8372532143  BUTH      210             0.0000000000
     18607       845  BUTH      C4            -10.4302385595       26.7418606730       23.6677614538  BUTH      210             0.0000000000
     18608       845  BUTH      DC4           -10.4336294122       26.7415853703       23.6689752629  BUTH      210             0.0000000000
     18609       845  BUTH      O1            -11.5054223057       26.2219960854       23.3283502573  BUTH      210             0.0000000000
     18610       845  BUTH      DO1           -11.4779810168       26.2416851698       23.2881806958  BUTH      210             0.0000000000
     18611       845  BUTH      O2             -9.7467064229       27.1698692325       22.7291292783  BUTH      210             0.0000000000
     18612       845  BUTH      DO2            -9.7468555808       27.1821486256       22.7335345086  BUTH      210             0.0000000000
     18613       845  BUTH      H1            -10.9859748773       25.0138767429       26.3526728195  BUTH      210             0.0000000000
     18614       845  BUTH      H2             -9.6851199938       24.6673204541       25.1615881608  BUTH      210             0.0000000000
     18615       845  BUTH      H3             -9.2861459519       24.7511224788       26.8944434188  BUTH      210             0.0000000000
     18616       845  BUTH      H4             -8.5518394513       26.8184225432       25.7168833347  BUTH      210             0.0000000000
     18617       845  BUTH      H5             -9.7873195617       27.2128720543       26.9429470616  BUTH      210             0.0000000000
     18618       845  BUTH      H6            -10.0762111854       28.4156837497       24.8030327544  BUTH      210             0.0000000000
     18619       845  BUTH      H7            -11.4815458367       27.4956142138       25.3031385738  BUTH      210             0.0000000000
     18620       845  BUTH      H8            -10.2619153689       26.7589727741       22.0173541428  BUTH      210             0.0000000000
     18621       845  BUTH      H9            -11.5160295370       25.8643323176       22.4278364508  BUTH      210             0.0000000000
     18622       845  BUTH      LPO11         -11.7482240543       26.2777641085       23.5741901209  BUTH      210             0.0000000000
     18623       845  BUTH      LPO12         -11.4699512387       26.0659811236       23.0170607858  BUTH      210             0.0000000000
     18624       845  BUTH      LPO21          -9.8402308796       27.5053225255       22.6941397917  BUTH      210             0.0000000000
     18625       845  BUTH      LPO22          -9.4593459658       26.9700665780       22.7274360633  BUTH      210             0.0000000000
     18626       846  BUTH      C1            -16.3583944367        4.2929379530        2.3648414716  BUTH      211             0.0000000000
     18627       846  BUTH      DC1           -16.3888692637        4.2670693162        2.3662583779  BUTH      211             0.0000000000
     18628       846  BUTH      C2            -16.8328928585        4.4763742291        0.9251238180  BUTH      211             0.0000000000
     18629       846  BUTH      DC2           -16.7530111351        4.4582193142        0.9195663011  BUTH      211             0.0000000000
     18630       846  BUTH      C3            -18.0912875955        5.3674240740        0.8092133384  BUTH      211             0.0000000000
     18631       846  BUTH      DC3           -18.0968291031        5.3264339508        0.8593970451  BUTH      211             0.0000000000
     18632       846  BUTH      C4            -19.1546609470        4.9981072316        1.5765093041  BUTH      211             0.0000000000
     18633       846  BUTH      DC4           -19.1501615426        4.9855585275        1.5807757901  BUTH      211             0.0000000000
     18634       846  BUTH      O1            -19.4204991482        5.6895971624        2.5647497380  BUTH      211             0.0000000000
     18635       846  BUTH      DO1           -19.4798292215        5.6466648292        2.5316747940  BUTH      211             0.0000000000
     18636       846  BUTH      O2            -20.1129136905        4.3740830042        1.1738408220  BUTH      211             0.0000000000
     18637       846  BUTH      DO2           -20.1150875705        4.3758340069        1.1769072899  BUTH      211             0.0000000000
     18638       846  BUTH      H1            -16.1279466427        5.2753782814        2.8296272468  BUTH      211             0.0000000000
     18639       846  BUTH      H2            -17.1401288230        3.8103213707        2.9895762818  BUTH      211             0.0000000000
     18640       846  BUTH      H3            -15.4333540973        3.6792611375        2.4098096389  BUTH      211             0.0000000000
     18641       846  BUTH      H4            -17.0627392427        3.4880929347        0.4725846232  BUTH      211             0.0000000000
     18642       846  BUTH      H5            -16.0243153085        4.9371341660        0.3183094913  BUTH      211             0.0000000000
     18643       846  BUTH      H6            -18.3475910045        5.3830600304       -0.2717052897  BUTH      211             0.0000000000
     18644       846  BUTH      H7            -17.7330222817        6.4005570559        1.0056903277  BUTH      211             0.0000000000
     18645       846  BUTH      H8            -20.7087938978        4.7338551685        1.8494078210  BUTH      211             0.0000000000
     18646       846  BUTH      H9            -20.2412853191        5.4489460512        3.0201156405  BUTH      211             0.0000000000
     18647       846  BUTH      LPO11         -19.1933342260        5.9546607963        2.5899958887  BUTH      211             0.0000000000
     18648       846  BUTH      LPO12         -19.6991950610        5.5585743135        2.7310675099  BUTH      211             0.0000000000
     18649       846  BUTH      LPO21         -20.2192994654        4.5444321353        0.8871995123  BUTH      211             0.0000000000
     18650       846  BUTH      LPO22         -20.0642154066        4.0471195061        1.2888336395  BUTH      211             0.0000000000
     18651       847  BUTH      C1              4.4795667244      -16.1444562031       -1.6104903727  BUTH      212             0.0000000000
     18652       847  BUTH      DC1             4.5636810734      -16.1014808175       -1.6205031702  BUTH      212             0.0000000000
     18653       847  BUTH      C2              4.4614864690      -15.3391671854       -2.9070715578  BUTH      212             0.0000000000
     18654       847  BUTH      DC2             4.4934950614      -15.3612367060       -2.9276560811  BUTH      212             0.0000000000
     18655       847  BUTH      C3              5.8584691069      -14.8126718734       -3.2828890701  BUTH      212             0.0000000000
     18656       847  BUTH      DC3             5.9448310994      -14.7881695274       -3.2215711999  BUTH      212             0.0000000000
     18657       847  BUTH      C4              6.5280572566      -14.2259797626       -2.2538407679  BUTH      212             0.0000000000
     18658       847  BUTH      DC4             6.5540978530      -14.2124754947       -2.2048033357  BUTH      212             0.0000000000
     18659       847  BUTH      O1              7.4908737407      -14.8858713603       -1.8163615464  BUTH      212             0.0000000000
     18660       847  BUTH      DO1             7.5128422584      -14.8455849516       -1.8070712174  BUTH      212             0.0000000000
     18661       847  BUTH      O2              6.7140029789      -12.9904379628       -2.1821705806  BUTH      212             0.0000000000
     18662       847  BUTH      DO2             6.7181292450      -12.9787546068       -2.1656811794  BUTH      212             0.0000000000
     18663       847  BUTH      H1              5.1388647304      -17.0359164342       -1.6808167414  BUTH      212             0.0000000000
     18664       847  BUTH      H2              4.7927738747      -15.5298969705       -0.7395487948  BUTH      212             0.0000000000
     18665       847  BUTH      H3              3.4601126669      -16.5263914660       -1.3887700996  BUTH      212             0.0000000000
     18666       847  BUTH      H4              3.7563557175      -14.4879378330       -2.7951777969  BUTH      212             0.0000000000
     18667       847  BUTH      H5              4.0472960778      -15.9587808864       -3.7309927806  BUTH      212             0.0000000000
     18668       847  BUTH      H6              5.6920311659      -14.1350053395       -4.1474048193  BUTH      212             0.0000000000
     18669       847  BUTH      H7              6.3698061933      -15.6895743651       -3.7344390722  BUTH      212             0.0000000000
     18670       847  BUTH      H8              7.6738027642      -13.0236093682       -2.0458473256  BUTH      212             0.0000000000
     18671       847  BUTH      H9              8.0574013666      -14.4001675100       -1.1982197998  BUTH      212             0.0000000000
     18672       847  BUTH      LPO11           7.5218795917      -15.1852205700       -1.9950475498  BUTH      212             0.0000000000
     18673       847  BUTH      LPO12           7.6447893090      -14.7132629084       -1.5536519726  BUTH      212             0.0000000000
     18674       847  BUTH      LPO21           6.6983478975      -12.8764814270       -2.5127289361  BUTH      212             0.0000000000
     18675       847  BUTH      LPO22           6.6051059406      -12.9001946029       -1.8620181621  BUTH      212             0.0000000000
     18676       848  BUTH      C1            -16.5835581102      -23.4383213340       22.8864713316  BUTH      213             0.0000000000
     18677       848  BUTH      DC1           -16.6406716513      -23.3677759837       22.8453768948  BUTH      213             0.0000000000
     18678       848  BUTH      C2            -17.5538584793      -23.4224361674       21.7161277917  BUTH      213             0.0000000000
     18679       848  BUTH      DC2           -17.5684910079      -23.4586492999       21.6692092109  BUTH      213             0.0000000000
     18680       848  BUTH      C3            -17.9242674600      -21.9755182705       21.3636143267  BUTH      213             0.0000000000
     18681       848  BUTH      DC3           -17.9590750562      -21.9398700823       21.4232554697  BUTH      213             0.0000000000
     18682       848  BUTH      C4            -18.3550772076      -21.2418836610       22.4210673530  BUTH      213             0.0000000000
     18683       848  BUTH      DC4           -18.3954053078      -21.2245164488       22.4194924020  BUTH      213             0.0000000000
     18684       848  BUTH      O1            -17.7005850779      -20.2166830019       22.6661216702  BUTH      213             0.0000000000
     18685       848  BUTH      DO1           -17.7707085338      -20.2136159504       22.6757436606  BUTH      213             0.0000000000
     18686       848  BUTH      O2            -19.5664045811      -21.0946159231       22.6805882176  BUTH      213             0.0000000000
     18687       848  BUTH      DO2           -19.6346617486      -21.0962047553       22.6507382587  BUTH      213             0.0000000000
     18688       848  BUTH      H1            -15.6573714620      -22.8714787147       22.6515485022  BUTH      213             0.0000000000
     18689       848  BUTH      H2            -17.0241838416      -23.0143567609       23.8140617621  BUTH      213             0.0000000000
     18690       848  BUTH      H3            -16.2669343953      -24.4759666296       23.1259763730  BUTH      213             0.0000000000
     18691       848  BUTH      H4            -18.4581975566      -24.0116519257       21.9794082960  BUTH      213             0.0000000000
     18692       848  BUTH      H5            -17.0838317256      -23.9092024294       20.8349612598  BUTH      213             0.0000000000
     18693       848  BUTH      H6            -18.6497453612      -22.0336654004       20.5241968338  BUTH      213             0.0000000000
     18694       848  BUTH      H7            -16.9895828110      -21.5824513864       20.9095394082  BUTH      213             0.0000000000
     18695       848  BUTH      H8            -19.3597714046      -20.4208534545       23.3471066841  BUTH      213             0.0000000000
     18696       848  BUTH      H9            -18.0736994951      -19.6547486489       23.3618058044  BUTH      213             0.0000000000
     18697       848  BUTH      LPO11         -17.4382569543      -20.1844354619       22.4366787541  BUTH      213             0.0000000000
     18698       848  BUTH      LPO12         -17.8366224209      -20.0511078555       22.9428502596  BUTH      213             0.0000000000
     18699       848  BUTH      LPO21         -19.6956201169      -20.9008068488       22.4193576910  BUTH      213             0.0000000000
     18700       848  BUTH      LPO22         -19.6539218981      -21.3688988195       22.8796098546  BUTH      213             0.0000000000
     18701       849  BUTH      C1            -13.2771852015        4.5918882963       -7.4550728639  BUTH      214             0.0000000000
     18702       849  BUTH      DC1           -13.3007189303        4.5892827019       -7.4345619305  BUTH      214             0.0000000000
     18703       849  BUTH      C2            -13.6039343796        3.8945231055       -6.1398410651  BUTH      214             0.0000000000
     18704       849  BUTH      DC2           -13.5415095795        3.8431527985       -6.1455263545  BUTH      214             0.0000000000
     18705       849  BUTH      C3            -15.0576848915        4.1544700304       -5.6958524087  BUTH      214             0.0000000000
     18706       849  BUTH      DC3           -15.0363589678        4.1651203474       -5.7170786568  BUTH      214             0.0000000000
     18707       849  BUTH      C4            -15.4729886154        5.4511082680       -5.6279207974  BUTH      214             0.0000000000
     18708       849  BUTH      DC4           -15.4606335036        5.4191445995       -5.6386832027  BUTH      214             0.0000000000
     18709       849  BUTH      O1            -16.4227381370        5.7149561258       -6.3838873216  BUTH      214             0.0000000000
     18710       849  BUTH      DO1           -16.4142616891        5.7180679027       -6.3438171274  BUTH      214             0.0000000000
     18711       849  BUTH      O2            -15.3232952069        6.1306854748       -4.5916767892  BUTH      214             0.0000000000
     18712       849  BUTH      DO2           -15.3144323918        6.1039353170       -4.6041168758  BUTH      214             0.0000000000
     18713       849  BUTH      H1            -13.9648632095        4.2575922314       -8.2610915360  BUTH      214             0.0000000000
     18714       849  BUTH      H2            -13.3850106724        5.6937850806       -7.3627790777  BUTH      214             0.0000000000
     18715       849  BUTH      H3            -12.2358822745        4.3839181010       -7.7818106985  BUTH      214             0.0000000000
     18716       849  BUTH      H4            -12.9122848145        4.2436327218       -5.3435594850  BUTH      214             0.0000000000
     18717       849  BUTH      H5            -13.4545324590        2.7992361242       -6.2509558540  BUTH      214             0.0000000000
     18718       849  BUTH      H6            -15.1725859899        3.6480108411       -4.7137028136  BUTH      214             0.0000000000
     18719       849  BUTH      H7            -15.6538424354        3.5426769219       -6.4062229991  BUTH      214             0.0000000000
     18720       849  BUTH      H8            -15.9769006513        6.8319955976       -4.7395417120  BUTH      214             0.0000000000
     18721       849  BUTH      H9            -16.7612643801        6.6193523458       -6.3037096424  BUTH      214             0.0000000000
     18722       849  BUTH      LPO11         -16.5159530482        5.4292076493       -6.5632160380  BUTH      214             0.0000000000
     18723       849  BUTH      LPO12         -16.5125683741        6.0515559785       -6.3502559720  BUTH      214             0.0000000000
     18724       849  BUTH      LPO21         -15.4848059754        5.9477296596       -4.3407954601  BUTH      214             0.0000000000
     18725       849  BUTH      LPO22         -15.0273919130        6.3100053563       -4.6444557696  BUTH      214             0.0000000000
     18726       850  BUTH      C1            -12.8991697053       11.3405188195        4.9944642848  BUTH      215             0.0000000000
     18727       850  BUTH      DC1           -12.9353173015       11.3056426196        5.0360587686  BUTH      215             0.0000000000
     18728       850  BUTH      C2            -13.6924537334       11.9494241486        6.1451416987  BUTH      215             0.0000000000
     18729       850  BUTH      DC2           -13.6780439668       12.0264367077        6.1398938321  BUTH      215             0.0000000000
     18730       850  BUTH      C3            -13.8479835462       10.9708973612        7.3312070733  BUTH      215             0.0000000000
     18731       850  BUTH      DC3           -13.8733111695       10.9338507393        7.2683558407  BUTH      215             0.0000000000
     18732       850  BUTH      C4            -14.3582249709        9.7574128868        7.0008090096  BUTH      215             0.0000000000
     18733       850  BUTH      DC4           -14.3793254945        9.7486157404        6.9849123664  BUTH      215             0.0000000000
     18734       850  BUTH      O1            -13.6142908005        8.7686585591        6.9500344722  BUTH      215             0.0000000000
     18735       850  BUTH      DO1           -13.6997135981        8.7472650174        6.9424527845  BUTH      215             0.0000000000
     18736       850  BUTH      O2            -15.5421668631        9.4593911924        7.0139346334  BUTH      215             0.0000000000
     18737       850  BUTH      DO2           -15.5691319996        9.4522871302        7.0137282941  BUTH      215             0.0000000000
     18738       850  BUTH      H1            -11.8914365634       11.0169332983        5.3322324350  BUTH      215             0.0000000000
     18739       850  BUTH      H2            -13.4186793656       10.4594590652        4.5606850523  BUTH      215             0.0000000000
     18740       850  BUTH      H3            -12.7431984066       12.0721367216        4.1730452692  BUTH      215             0.0000000000
     18741       850  BUTH      H4            -14.6971175015       12.2479627172        5.7765681808  BUTH      215             0.0000000000
     18742       850  BUTH      H5            -13.1824295026       12.8749188203        6.4881517548  BUTH      215             0.0000000000
     18743       850  BUTH      H6            -14.4764662514       11.4915479434        8.0850329554  BUTH      215             0.0000000000
     18744       850  BUTH      H7            -12.8516728070       10.9034523436        7.8181743032  BUTH      215             0.0000000000
     18745       850  BUTH      H8            -15.3148632975        8.5165796361        6.9955102337  BUTH      215             0.0000000000
     18746       850  BUTH      H9            -14.0706369808        7.9285710695        6.7920402483  BUTH      215             0.0000000000
     18747       850  BUTH      LPO11         -13.2863373457        8.8613856021        7.0297102336  BUTH      215             0.0000000000
     18748       850  BUTH      LPO12         -13.7984237107        8.4847812885        6.8605427595  BUTH      215             0.0000000000
     18749       850  BUTH      LPO21         -15.6460633989        9.5038984495        7.3451816922  BUTH      215             0.0000000000
     18750       850  BUTH      LPO22         -15.6559868045        9.5143573305        6.6875548782  BUTH      215             0.0000000000
     18751       851  BUTH      C1             16.4360384234        8.2208049054       16.0598561896  BUTH      216             0.0000000000
     18752       851  BUTH      DC1            16.4642357170        8.2096108517       16.0486205323  BUTH      216             0.0000000000
     18753       851  BUTH      C2             17.3400014243        9.3275924624       15.5380046637  BUTH      216             0.0000000000
     18754       851  BUTH      DC2            17.2736120493        9.3615170881       15.5126727879  BUTH      216             0.0000000000
     18755       851  BUTH      C3             18.7563912756        8.8288379155       15.1894408816  BUTH      216             0.0000000000
     18756       851  BUTH      DC3            18.7283387162        8.8188288900       15.1883859857  BUTH      216             0.0000000000
     18757       851  BUTH      C4             19.4456679823        8.1566466936       16.1461839573  BUTH      216             0.0000000000
     18758       851  BUTH      DC4            19.4102109100        8.1665363384       16.1173107461  BUTH      216             0.0000000000
     18759       851  BUTH      O1             19.5537467545        6.9371124290       15.9454838892  BUTH      216             0.0000000000
     18760       851  BUTH      DO1            19.5781183795        6.9694056346       15.9616833244  BUTH      216             0.0000000000
     18761       851  BUTH      O2             20.3422111116        8.6960115671       16.7077063507  BUTH      216             0.0000000000
     18762       851  BUTH      DO2            20.3102968112        8.7044607530       16.6834454571  BUTH      216             0.0000000000
     18763       851  BUTH      H1             16.4368163910        7.3286979371       15.3976888752  BUTH      216             0.0000000000
     18764       851  BUTH      H2             16.7701949484        7.8732888390       17.0608022423  BUTH      216             0.0000000000
     18765       851  BUTH      H3             15.3861460670        8.5718845047       16.1536120219  BUTH      216             0.0000000000
     18766       851  BUTH      H4             17.4211618243       10.1240219579       16.3083513712  BUTH      216             0.0000000000
     18767       851  BUTH      H5             16.8847040435        9.7868645119       14.6346251866  BUTH      216             0.0000000000
     18768       851  BUTH      H6             19.3062035469        9.7292765052       14.8412486727  BUTH      216             0.0000000000
     18769       851  BUTH      H7             18.6422734590        8.2192052341       14.2676783754  BUTH      216             0.0000000000
     18770       851  BUTH      H8             20.8262170987        7.9360549585       17.0670170206  BUTH      216             0.0000000000
     18771       851  BUTH      H9             20.1385892858        6.4879894817       16.5741402276  BUTH      216             0.0000000000
     18772       851  BUTH      LPO11          19.3935603052        6.8503168141       15.6466414179  BUTH      216             0.0000000000
     18773       851  BUTH      LPO12          19.7347895883        6.7885697361       16.2055964816  BUTH      216             0.0000000000
     18774       851  BUTH      LPO21          20.5587386932        8.7942073786       16.4508534959  BUTH      216             0.0000000000
     18775       851  BUTH      LPO22          20.1973497560        8.8235347451       16.9996875602  BUTH      216             0.0000000000
     18776       852  BUTH      C1             19.6673529085      -17.8142511461       16.7484732513  BUTH      217             0.0000000000
     18777       852  BUTH      DC1            19.6601390797      -17.7772336157       16.7309834255  BUTH      217             0.0000000000
     18778       852  BUTH      C2             19.4114843685      -17.3452772970       18.1636679608  BUTH      217             0.0000000000
     18779       852  BUTH      DC2            19.4546409721      -17.3900439127       18.1503848980  BUTH      217             0.0000000000
     18780       852  BUTH      C3             17.9803422741      -16.8255926121       18.3942355313  BUTH      217             0.0000000000
     18781       852  BUTH      DC3            17.9882578088      -16.7869355893       18.3417628154  BUTH      217             0.0000000000
     18782       852  BUTH      C4             17.5604465475      -15.7863942419       17.6407040883  BUTH      217             0.0000000000
     18783       852  BUTH      DC4            17.5674678516      -15.7744342585       17.6319543816  BUTH      217             0.0000000000
     18784       852  BUTH      O1             16.7434222224      -16.0499335002       16.7480267692  BUTH      217             0.0000000000
     18785       852  BUTH      DO1            16.7461283619      -15.9839150119       16.7715093608  BUTH      217             0.0000000000
     18786       852  BUTH      O2             17.5087702937      -14.6374208098       18.0583322772  BUTH      217             0.0000000000
     18787       852  BUTH      DO2            17.5138045646      -14.6311372276       18.0716658820  BUTH      217             0.0000000000
     18788       852  BUTH      H1             18.9554515996      -18.6190768559       16.4660319233  BUTH      217             0.0000000000
     18789       852  BUTH      H2             19.5378295830      -16.9694553916       16.0386388753  BUTH      217             0.0000000000
     18790       852  BUTH      H3             20.6965841354      -18.2218515793       16.6543139741  BUTH      217             0.0000000000
     18791       852  BUTH      H4             20.1256839981      -16.5277325628       18.4000162139  BUTH      217             0.0000000000
     18792       852  BUTH      H5             19.5979305145      -18.1891043653       18.8618904997  BUTH      217             0.0000000000
     18793       852  BUTH      H6             17.8568357088      -16.6191374827       19.4788752907  BUTH      217             0.0000000000
     18794       852  BUTH      H7             17.3682153949      -17.7438566473       18.2661229017  BUTH      217             0.0000000000
     18795       852  BUTH      H8             16.8042681754      -14.3583854526       17.4527614434  BUTH      217             0.0000000000
     18796       852  BUTH      H9             16.3687976316      -15.2785737685       16.2967822897  BUTH      217             0.0000000000
     18797       852  BUTH      LPO11          16.6711735948      -16.3923934514       16.7491746509  BUTH      217             0.0000000000
     18798       852  BUTH      LPO12          16.6577306691      -15.7584187129       16.5743141142  BUTH      217             0.0000000000
     18799       852  BUTH      LPO21          17.3351376666      -14.6582329050       18.3615130277  BUTH      217             0.0000000000
     18800       852  BUTH      LPO22          17.7870683840      -14.4771343517       17.9191977224  BUTH      217             0.0000000000
     18801       853  BUTH      C1            -13.2027134403       12.3366017368      -22.4579257510  BUTH      218             0.0000000000
     18802       853  BUTH      DC1           -13.2475644093       12.3510763046      -22.4331635649  BUTH      218             0.0000000000
     18803       853  BUTH      C2            -12.8952275805       13.7414000790      -21.9572415887  BUTH      218             0.0000000000
     18804       853  BUTH      DC2           -12.8387189519       13.7340056449      -21.9472373942  BUTH      218             0.0000000000
     18805       853  BUTH      C3            -14.0871854422       14.4975680043      -21.3454631618  BUTH      218             0.0000000000
     18806       853  BUTH      DC3           -14.1188904248       14.4833007224      -21.3847924260  BUTH      218             0.0000000000
     18807       853  BUTH      C4            -15.1989873052       14.5496672855      -22.1166307359  BUTH      218             0.0000000000
     18808       853  BUTH      DC4           -15.1965933131       14.5416344502      -22.1235180064  BUTH      218             0.0000000000
     18809       853  BUTH      O1            -16.1086388263       13.7662810308      -21.8214554868  BUTH      218             0.0000000000
     18810       853  BUTH      DO1           -16.1227093172       13.8244354498      -21.8529281296  BUTH      218             0.0000000000
     18811       853  BUTH      O2            -15.5969872619       15.5804048165      -22.5831469516  BUTH      218             0.0000000000
     18812       853  BUTH      DO2           -15.5914733727       15.5761507989      -22.5769885442  BUTH      218             0.0000000000
     18813       853  BUTH      H1            -13.5938732305       11.6942110571      -21.6402160009  BUTH      218             0.0000000000
     18814       853  BUTH      H2            -13.9468532942       12.3450255085      -23.2828535774  BUTH      218             0.0000000000
     18815       853  BUTH      H3            -12.2777455447       11.8583388138      -22.8452498640  BUTH      218             0.0000000000
     18816       853  BUTH      H4            -12.4569807952       14.3349289706      -22.7878944707  BUTH      218             0.0000000000
     18817       853  BUTH      H5            -12.1397618023       13.6472053075      -21.1480940107  BUTH      218             0.0000000000
     18818       853  BUTH      H6            -13.7044468472       15.5105556003      -21.0970918705  BUTH      218             0.0000000000
     18819       853  BUTH      H7            -14.2498950203       14.0320804594      -20.3498889862  BUTH      218             0.0000000000
     18820       853  BUTH      H8            -16.5309048276       15.3185474903      -22.5944924934  BUTH      218             0.0000000000
     18821       853  BUTH      H9            -16.9430829295       13.9162391450      -22.2906852841  BUTH      218             0.0000000000
     18822       853  BUTH      LPO11         -16.0152251591       13.5730866512      -21.5449598838  BUTH      218             0.0000000000
     18823       853  BUTH      LPO12         -16.3782185062       13.8077623316      -22.0407865103  BUTH      218             0.0000000000
     18824       853  BUTH      LPO21         -15.5913917025       15.8079749464      -22.3172888585  BUTH      218             0.0000000000
     18825       853  BUTH      LPO22         -15.5153861721       15.5631467542      -22.9230637377  BUTH      218             0.0000000000
     18826       854  BUTH      C1            -21.8066507115      -22.3822151909      -14.0268057771  BUTH      219             0.0000000000
     18827       854  BUTH      DC1           -21.8515487749      -22.3912992027      -14.0507758772  BUTH      219             0.0000000000
     18828       854  BUTH      C2            -23.2984666665      -22.1760087465      -13.7791261990  BUTH      219             0.0000000000
     18829       854  BUTH      DC2           -23.2914496722      -22.1072857143      -13.7157473937  BUTH      219             0.0000000000
     18830       854  BUTH      C3            -24.1405312569      -23.4102188220      -14.1597945464  BUTH      219             0.0000000000
     18831       854  BUTH      DC3           -24.1115924002      -23.3890886207      -14.1864803943  BUTH      219             0.0000000000
     18832       854  BUTH      C4            -23.9886818469      -23.8230353269      -15.4457978792  BUTH      219             0.0000000000
     18833       854  BUTH      DC4           -23.9888459440      -23.8044056930      -15.4309539576  BUTH      219             0.0000000000
     18834       854  BUTH      O1            -23.4810344107      -24.9392786960      -15.6045898433  BUTH      219             0.0000000000
     18835       854  BUTH      DO1           -23.5248318440      -24.8993707437      -15.6411893914  BUTH      219             0.0000000000
     18836       854  BUTH      O2            -24.7133330008      -23.4168435063      -16.3571806005  BUTH      219             0.0000000000
     18837       854  BUTH      DO2           -24.7149659807      -23.4057761432      -16.3436033904  BUTH      219             0.0000000000
     18838       854  BUTH      H1            -21.4329532265      -23.2914354551      -13.5091285590  BUTH      219             0.0000000000
     18839       854  BUTH      H2            -21.5837449309      -22.5078875736      -15.1079350324  BUTH      219             0.0000000000
     18840       854  BUTH      H3            -21.2039713097      -21.5218926124      -13.6649444776  BUTH      219             0.0000000000
     18841       854  BUTH      H4            -23.6510297586      -21.3032663064      -14.3693303163  BUTH      219             0.0000000000
     18842       854  BUTH      H5            -23.4752235427      -21.9496825752      -12.7058813663  BUTH      219             0.0000000000
     18843       854  BUTH      H6            -25.1956649203      -23.1328404355      -13.9498536431  BUTH      219             0.0000000000
     18844       854  BUTH      H7            -23.9074610135      -24.1872120170      -13.4006629121  BUTH      219             0.0000000000
     18845       854  BUTH      H8            -24.5669972651      -24.1654252042      -16.9564395545  BUTH      219             0.0000000000
     18846       854  BUTH      H9            -23.4377548363      -25.2381738496      -16.5253230107  BUTH      219             0.0000000000
     18847       854  BUTH      LPO11         -23.4063881127      -25.0821297327      -15.2939107299  BUTH      219             0.0000000000
     18848       854  BUTH      LPO12         -23.4573884011      -25.0125582430      -15.9460147607  BUTH      219             0.0000000000
     18849       854  BUTH      LPO21         -25.0399683751      -23.4805111601      -16.2487566081  BUTH      219             0.0000000000
     18850       854  BUTH      LPO22         -24.5276215653      -23.1663358040      -16.5161055948  BUTH      219             0.0000000000
     18851       855  BUTH      C1             22.4025959549       12.5527222123        8.1606966199  BUTH      220             0.0000000000
     18852       855  BUTH      DC1            22.4183312624       12.4937925735        8.1811064189  BUTH      220             0.0000000000
     18853       855  BUTH      C2             21.6487419782       11.8216562682        9.2652434431  BUTH      220             0.0000000000
     18854       855  BUTH      DC2            21.5973306704       11.8459527683        9.2756188240  BUTH      220             0.0000000000
     18855       855  BUTH      C3             22.5811874325       10.9005597468       10.0718453405  BUTH      220             0.0000000000
     18856       855  BUTH      DC3            22.5920408308       10.8790173998       10.0227333877  BUTH      220             0.0000000000
     18857       855  BUTH      C4             23.3110003990       10.0718703495        9.2787360643  BUTH      220             0.0000000000
     18858       855  BUTH      DC4            23.2920588481       10.0600768685        9.2715060741  BUTH      220             0.0000000000
     18859       855  BUTH      O1             24.5390162297       10.1874549612        9.3597982150  BUTH      220             0.0000000000
     18860       855  BUTH      DO1            24.4974835974       10.1285896822        9.3500448816  BUTH      220             0.0000000000
     18861       855  BUTH      O2             22.9132279222        8.9346938272        8.9750378151  BUTH      220             0.0000000000
     18862       855  BUTH      DO2            22.8750543910        8.9233939654        8.9719238561  BUTH      220             0.0000000000
     18863       855  BUTH      H1             23.1773053167       13.2243174135        8.5886058302  BUTH      220             0.0000000000
     18864       855  BUTH      H2             22.9127027942       11.8549991063        7.4626318088  BUTH      220             0.0000000000
     18865       855  BUTH      H3             21.7089016237       13.1780825134        7.5590042827  BUTH      220             0.0000000000
     18866       855  BUTH      H4             20.8332086896       11.2217146237        8.8077541220  BUTH      220             0.0000000000
     18867       855  BUTH      H5             21.1688023867       12.5625435567        9.9398285114  BUTH      220             0.0000000000
     18868       855  BUTH      H6             21.9348658171       10.3442667587       10.7839741781  BUTH      220             0.0000000000
     18869       855  BUTH      H7             23.1840298131       11.5674732584       10.7246304752  BUTH      220             0.0000000000
     18870       855  BUTH      H8             23.8080212258        8.5645799928        8.9179353341  BUTH      220             0.0000000000
     18871       855  BUTH      H9             25.0462695437        9.5454902791        8.8406292421  BUTH      220             0.0000000000
     18872       855  BUTH      LPO11          24.6207573130       10.4366379843        9.5915873785  BUTH      220             0.0000000000
     18873       855  BUTH      LPO12          24.6951226432        9.9606588732        9.1437095246  BUTH      220             0.0000000000
     18874       855  BUTH      LPO21          22.7986570993        8.7938603303        9.2742692518  BUTH      220             0.0000000000
     18875       855  BUTH      LPO22          22.8246258417        8.9549560111        8.6370450411  BUTH      220             0.0000000000
     18876       856  BUTH      C1            -14.1690745179       22.7062445258       -0.4764827448  BUTH      221             0.0000000000
     18877       856  BUTH      DC1           -14.1631030028       22.6801652118       -0.4122163767  BUTH      221             0.0000000000
     18878       856  BUTH      C2            -13.2022047503       22.8540896516        0.6948386097  BUTH      221             0.0000000000
     18879       856  BUTH      DC2           -13.1812263789       22.9008473199        0.6942053475  BUTH      221             0.0000000000
     18880       856  BUTH      C3            -12.7147728958       21.5016148690        1.2458838146  BUTH      221             0.0000000000
     18881       856  BUTH      DC3           -12.7501743800       21.4854343401        1.2486255397  BUTH      221             0.0000000000
     18882       856  BUTH      C4            -13.7058199296       20.6145245643        1.5350095353  BUTH      221             0.0000000000
     18883       856  BUTH      DC4           -13.7058159025       20.6263298183        1.5398526465  BUTH      221             0.0000000000
     18884       856  BUTH      O1            -13.7624173105       19.6129403727        0.8088468530  BUTH      221             0.0000000000
     18885       856  BUTH      DO1           -13.7749516216       19.6149871838        0.8722718088  BUTH      221             0.0000000000
     18886       856  BUTH      O2            -14.1177588973       20.4514249626        2.6894089556  BUTH      221             0.0000000000
     18887       856  BUTH      DO2           -14.1064850909       20.4645751829        2.6943427163  BUTH      221             0.0000000000
     18888       856  BUTH      H1            -13.6947506294       22.1707234338       -1.3265151023  BUTH      221             0.0000000000
     18889       856  BUTH      H2            -15.0813227015       22.1360691789       -0.1989501778  BUTH      221             0.0000000000
     18890       856  BUTH      H3            -14.4859339098       23.6994503747       -0.8604922085  BUTH      221             0.0000000000
     18891       856  BUTH      H4            -13.6964381862       23.4218996447        1.5119347623  BUTH      221             0.0000000000
     18892       856  BUTH      H5            -12.3248105841       23.4556928625        0.3745667645  BUTH      221             0.0000000000
     18893       856  BUTH      H6            -12.0970005825       21.7468678250        2.1361249939  BUTH      221             0.0000000000
     18894       856  BUTH      H7            -11.9730910256       21.1345784569        0.5045921882  BUTH      221             0.0000000000
     18895       856  BUTH      H8            -14.4581737736       19.5524260813        2.5597219343  BUTH      221             0.0000000000
     18896       856  BUTH      H9            -14.3947870682       18.9380092563        1.0978753617  BUTH      221             0.0000000000
     18897       856  BUTH      LPO11         -13.5091026070       19.6254816679        0.5676532027  BUTH      221             0.0000000000
     18898       856  BUTH      LPO12         -14.0266735368       19.4067707460        0.9096572287  BUTH      221             0.0000000000
     18899       856  BUTH      LPO21         -13.8312407716       20.3876608615        2.8800434306  BUTH      221             0.0000000000
     18900       856  BUTH      LPO22         -14.4158336543       20.6340932877        2.7062530124  BUTH      221             0.0000000000
     18901       857  BUTH      C1            -14.1402825800       -4.6010454072      -28.6872233712  BUTH      222             0.0000000000
     18902       857  BUTH      DC1           -14.1610024271       -4.5350144078      -28.6337152881  BUTH      222             0.0000000000
     18903       857  BUTH      C2            -13.9210816090       -3.2246647459      -28.0753237261  BUTH      222             0.0000000000
     18904       857  BUTH      DC2           -13.8325295989       -3.1842872667      -28.0833233652  BUTH      222             0.0000000000
     18905       857  BUTH      C3            -14.8425053231       -3.0263430882      -26.8601765607  BUTH      222             0.0000000000
     18906       857  BUTH      DC3           -14.8625866198       -3.0320781153      -26.8830247473  BUTH      222             0.0000000000
     18907       857  BUTH      C4            -16.1570192482       -3.2520104167      -27.1343638138  BUTH      222             0.0000000000
     18908       857  BUTH      DC4           -16.1449072505       -3.2493763266      -27.1274679248  BUTH      222             0.0000000000
     18909       857  BUTH      O1            -16.6912287093       -4.1179906316      -26.4287971542  BUTH      222             0.0000000000
     18910       857  BUTH      DO1           -16.7160124759       -4.0724685594      -26.4411625972  BUTH      222             0.0000000000
     18911       857  BUTH      O2            -16.8907636733       -2.3426093453      -27.5566746344  BUTH      222             0.0000000000
     18912       857  BUTH      DO2           -16.8637733691       -2.3355430158      -27.5445638715  BUTH      222             0.0000000000
     18913       857  BUTH      H1            -13.9628761305       -5.4062267206      -27.9425549846  BUTH      222             0.0000000000
     18914       857  BUTH      H2            -15.1772420203       -4.7270527716      -29.0655859808  BUTH      222             0.0000000000
     18915       857  BUTH      H3            -13.4608405959       -4.7837561152      -29.5470468342  BUTH      222             0.0000000000
     18916       857  BUTH      H4            -14.1477295552       -2.4512882873      -28.8400724182  BUTH      222             0.0000000000
     18917       857  BUTH      H5            -12.8591417901       -3.1046405702      -27.7716808137  BUTH      222             0.0000000000
     18918       857  BUTH      H6            -14.6713080679       -1.9840782318      -26.5156530196  BUTH      222             0.0000000000
     18919       857  BUTH      H7            -14.4168853952       -3.6505278439      -26.0455833692  BUTH      222             0.0000000000
     18920       857  BUTH      H8            -17.7667554068       -2.7091060057      -27.3586375653  BUTH      222             0.0000000000
     18921       857  BUTH      H9            -17.6545710227       -4.1763264203      -26.5155699783  BUTH      222             0.0000000000
     18922       857  BUTH      LPO11         -16.4586532344       -4.2474618390      -26.2015399102  BUTH      222             0.0000000000
     18923       857  BUTH      LPO12         -17.0270975442       -4.1559631193      -26.5196278532  BUTH      222             0.0000000000
     18924       857  BUTH      LPO21         -16.8717869361       -2.0923454191      -27.3127323242  BUTH      222             0.0000000000
     18925       857  BUTH      LPO22         -16.8858553062       -2.3786340659      -27.9047811230  BUTH      222             0.0000000000
     18926       858  BUTH      C1              4.6858489844       17.0570997405       -0.1950821459  BUTH      223             0.0000000000
     18927       858  BUTH      DC1             4.7122813930       17.0685814357       -0.2466877111  BUTH      223             0.0000000000
     18928       858  BUTH      C2              5.4516272043       16.2093287346        0.8200531577  BUTH      223             0.0000000000
     18929       858  BUTH      DC2             5.3716117252       16.1691322510        0.7859392105  BUTH      223             0.0000000000
     18930       858  BUTH      C3              6.6366754608       16.9015316317        1.5592381210  BUTH      223             0.0000000000
     18931       858  BUTH      DC3             6.6288231402       16.9045261654        1.4455245938  BUTH      223             0.0000000000
     18932       858  BUTH      C4              7.7086483471       17.4417437227        0.9175036115  BUTH      223             0.0000000000
     18933       858  BUTH      DC4             7.7054532528       17.4327391740        0.8698136814  BUTH      223             0.0000000000
     18934       858  BUTH      O1              7.5115443704       18.5124985496        0.3146001135  BUTH      223             0.0000000000
     18935       858  BUTH      DO1             7.5616134029       18.4830943283        0.2631330611  BUTH      223             0.0000000000
     18936       858  BUTH      O2              8.5906913205       16.7496485000        0.3751056893  BUTH      223             0.0000000000
     18937       858  BUTH      DO2             8.6026053332       16.7340080827        0.3452919576  BUTH      223             0.0000000000
     18938       858  BUTH      H1              4.3696241502       18.0142210200        0.2720813284  BUTH      223             0.0000000000
     18939       858  BUTH      H2              5.3136211427       17.2940403394       -1.0805663476  BUTH      223             0.0000000000
     18940       858  BUTH      H3              3.7647339528       16.5370501617       -0.5348122359  BUTH      223             0.0000000000
     18941       858  BUTH      H4              5.8133775230       15.2804444214        0.3295109683  BUTH      223             0.0000000000
     18942       858  BUTH      H5              4.7432167901       15.8903995928        1.6142570912  BUTH      223             0.0000000000
     18943       858  BUTH      H6              7.0079545593       16.1303107676        2.2675397597  BUTH      223             0.0000000000
     18944       858  BUTH      H7              6.1745279937       17.6478899357        2.2401859903  BUTH      223             0.0000000000
     18945       858  BUTH      H8              9.0568055284       17.5193748511        0.0129470367  BUTH      223             0.0000000000
     18946       858  BUTH      H9              8.2592752446       18.8204513436       -0.2192768540  BUTH      223             0.0000000000
     18947       858  BUTH      LPO11           7.1774416053       18.6103843032        0.3505684555  BUTH      223             0.0000000000
     18948       858  BUTH      LPO12           7.8077296753       18.6205969885        0.1626494878  BUTH      223             0.0000000000
     18949       858  BUTH      LPO21           8.8054682463       16.6534839389        0.6341872390  BUTH      223             0.0000000000
     18950       858  BUTH      LPO22           8.4409779314       16.6171410161        0.0878293976  BUTH      223             0.0000000000
     18951       859  BUTH      C1            -19.7800061317       21.9199455970       15.8540366341  BUTH      224             0.0000000000
     18952       859  BUTH      DC1           -19.8015963480       21.9400243557       15.8924581893  BUTH      224             0.0000000000
     18953       859  BUTH      C2            -20.3521584457       23.2180121982       16.4177538732  BUTH      224             0.0000000000
     18954       859  BUTH      DC2           -20.3513494656       23.2711963754       16.3418024349  BUTH      224             0.0000000000
     18955       859  BUTH      C3            -20.3390175682       23.2531981162       17.9624768253  BUTH      224             0.0000000000
     18956       859  BUTH      DC3           -20.3778865353       23.1982866745       17.9313432961  BUTH      224             0.0000000000
     18957       859  BUTH      C4            -20.8904897286       22.1662145993       18.5674728643  BUTH      224             0.0000000000
     18958       859  BUTH      DC4           -20.9164601761       22.1777418488       18.5614776976  BUTH      224             0.0000000000
     18959       859  BUTH      O1            -20.1478583948       21.4690818112       19.2600053539  BUTH      224             0.0000000000
     18960       859  BUTH      DO1           -20.2357749956       21.4852211384       19.2644318070  BUTH      224             0.0000000000
     18961       859  BUTH      O2            -22.0733942096       22.0862433480       18.9106076395  BUTH      224             0.0000000000
     18962       859  BUTH      DO2           -22.1093216580       22.1079645981       18.9131130980  BUTH      224             0.0000000000
     18963       859  BUTH      H1            -18.7369698990       21.7563557953       16.1999192679  BUTH      224             0.0000000000
     18964       859  BUTH      H2            -20.3714772431       21.0339603067       16.1694934326  BUTH      224             0.0000000000
     18965       859  BUTH      H3            -19.7513607280       21.9332628234       14.7434858290  BUTH      224             0.0000000000
     18966       859  BUTH      H4            -21.3983187318       23.3376657707       16.0634197386  BUTH      224             0.0000000000
     18967       859  BUTH      H5            -19.7621793380       24.0799788774       16.0392580390  BUTH      224             0.0000000000
     18968       859  BUTH      H6            -20.8531754667       24.1940946338       18.2534689233  BUTH      224             0.0000000000
     18969       859  BUTH      H7            -19.2824621004       23.4390036755       18.2514194461  BUTH      224             0.0000000000
     18970       859  BUTH      H8            -21.8736804853       21.3358072094       19.4918649243  BUTH      224             0.0000000000
     18971       859  BUTH      H9            -20.5929928023       20.7464238432       19.7275327015  BUTH      224             0.0000000000
     18972       859  BUTH      LPO11         -19.8236707807       21.6009854485       19.2580505235  BUTH      224             0.0000000000
     18973       859  BUTH      LPO12         -20.3276961490       21.2016721486       19.3965720210  BUTH      224             0.0000000000
     18974       859  BUTH      LPO21         -22.1218551806       22.3456066695       19.1405689444  BUTH      224             0.0000000000
     18975       859  BUTH      LPO22         -22.2378140646       21.9301110692       18.6439827667  BUTH      224             0.0000000000
     18976       860  BUTH      C1             13.3900810944        6.0073308965      -13.5471881149  BUTH      225             0.0000000000
     18977       860  BUTH      DC1            13.3213239830        5.9489275353      -13.5281228176  BUTH      225             0.0000000000
     18978       860  BUTH      C2             13.4633009944        5.2919868800      -14.8875109491  BUTH      225             0.0000000000
     18979       860  BUTH      DC2            13.4803913580        5.3068077978      -14.8967485122  BUTH      225             0.0000000000
     18980       860  BUTH      C3             12.0961668725        4.7504641531      -15.3390430034  BUTH      225             0.0000000000
     18981       860  BUTH      DC3            12.0739119517        4.7047815281      -15.2898931640  BUTH      225             0.0000000000
     18982       860  BUTH      C4             11.4918809996        3.9707544910      -14.4153053357  BUTH      225             0.0000000000
     18983       860  BUTH      DC4            11.4876985651        3.9585314156      -14.3977380457  BUTH      225             0.0000000000
     18984       860  BUTH      O1             10.3375948416        4.2960207294      -14.1046556958  BUTH      225             0.0000000000
     18985       860  BUTH      DO1            10.3473147749        4.2435546970      -14.1037142979  BUTH      225             0.0000000000
     18986       860  BUTH      O2             11.7156420829        2.7767523584      -14.3938510500  BUTH      225             0.0000000000
     18987       860  BUTH      DO2            11.7362773833        2.7693461917      -14.4069850520  BUTH      225             0.0000000000
     18988       860  BUTH      H1             12.6089768457        6.7970336439      -13.5709941176  BUTH      225             0.0000000000
     18989       860  BUTH      H2             13.1653836975        5.2944264727      -12.7252395986  BUTH      225             0.0000000000
     18990       860  BUTH      H3             14.3550184029        6.5071872414      -13.3161889266  BUTH      225             0.0000000000
     18991       860  BUTH      H4             14.1933492869        4.4582341142      -14.8087275887  BUTH      225             0.0000000000
     18992       860  BUTH      H5             13.8617292051        5.9880847064      -15.6562916572  BUTH      225             0.0000000000
     18993       860  BUTH      H6             12.3107228118        4.1977839392      -16.2786340482  BUTH      225             0.0000000000
     18994       860  BUTH      H7             11.4961462801        5.6234738845      -15.6739314888  BUTH      225             0.0000000000
     18995       860  BUTH      H8             10.8220975978        2.4813629939      -14.1588545043  BUTH      225             0.0000000000
     18996       860  BUTH      H9              9.8874826275        3.6832425304      -13.5039370649  BUTH      225             0.0000000000
     18997       860  BUTH      LPO11          10.2408193582        4.5802635770      -14.2844903684  BUTH      225             0.0000000000
     18998       860  BUTH      LPO12          10.2112934260        4.0746387101      -13.8647849933  BUTH      225             0.0000000000
     18999       860  BUTH      LPO21          11.7306752704        2.6823416928      -14.7305417530  BUTH      225             0.0000000000
     19000       860  BUTH      LPO22          11.8851356629        2.7227541070      -14.0924275685  BUTH      225             0.0000000000
     19001       861  BUTH      C1             25.8946402278        4.3164880224        4.9050494990  BUTH      226             0.0000000000
     19002       861  BUTH      DC1            25.8751819796        4.2784443026        4.8911937763  BUTH      226             0.0000000000
     19003       861  BUTH      C2             25.6128116309        4.0222687911        3.4349445661  BUTH      226             0.0000000000
     19004       861  BUTH      DC2            25.5802013896        4.0828579555        3.4367956070  BUTH      226             0.0000000000
     19005       861  BUTH      C3             25.3617135740        2.5239218883        3.1585579768  BUTH      226             0.0000000000
     19006       861  BUTH      DC3            25.3769075828        2.5151950113        3.1930882099  BUTH      226             0.0000000000
     19007       861  BUTH      C4             26.1870262598        1.6648682496        3.8155187095  BUTH      226             0.0000000000
     19008       861  BUTH      DC4            26.1608045286        1.6669219412        3.8181379878  BUTH      226             0.0000000000
     19009       861  BUTH      O1             25.6014038725        0.8698320700        4.5690413840  BUTH      226             0.0000000000
     19010       861  BUTH      DO1            25.6333510955        0.8617027552        4.5551061015  BUTH      226             0.0000000000
     19011       861  BUTH      O2             27.2447865076        1.2784378919        3.3398156657  BUTH      226             0.0000000000
     19012       861  BUTH      DO2            27.2190941381        1.2794559329        3.3297796007  BUTH      226             0.0000000000
     19013       861  BUTH      H1             25.0840210039        3.9451491817        5.5678654153  BUTH      226             0.0000000000
     19014       861  BUTH      H2             26.8397564812        3.8373358725        5.2389499133  BUTH      226             0.0000000000
     19015       861  BUTH      H3             26.0051304596        5.4091251690        5.0731476089  BUTH      226             0.0000000000
     19016       861  BUTH      H4             26.4918073955        4.3414963849        2.8351269362  BUTH      226             0.0000000000
     19017       861  BUTH      H5             24.7475978281        4.6135463997        3.0660043725  BUTH      226             0.0000000000
     19018       861  BUTH      H6             25.4551113365        2.4184152604        2.0565297515  BUTH      226             0.0000000000
     19019       861  BUTH      H7             24.2813293178        2.3614710414        3.3603018294  BUTH      226             0.0000000000
     19020       861  BUTH      H8             27.4621326661        0.5791840063        3.9759796783  BUTH      226             0.0000000000
     19021       861  BUTH      H9             26.1844943200        0.2036913543        4.9630249836  BUTH      226             0.0000000000
     19022       861  BUTH      LPO11          25.2561522555        0.9261000051        4.5574120914  BUTH      226             0.0000000000
     19023       861  BUTH      LPO12          25.8337778284        0.6603223424        4.7259108158  BUTH      226             0.0000000000
     19024       861  BUTH      LPO21          27.1525015736        1.0862923548        3.0622123813  BUTH      226             0.0000000000
     19025       861  BUTH      LPO22          27.4779306032        1.5230147964        3.4310624107  BUTH      226             0.0000000000
     19026       862  BUTH      C1             -1.6161457133      -12.3251532280      -23.9051384343  BUTH      227             0.0000000000
     19027       862  BUTH      DC1            -1.6287539445      -12.3404673482      -23.8718615521  BUTH      227             0.0000000000
     19028       862  BUTH      C2             -2.8296961230      -12.4209133046      -22.9861573178  BUTH      227             0.0000000000
     19029       862  BUTH      DC2            -2.8199288568      -12.3395930525      -22.9476807555  BUTH      227             0.0000000000
     19030       862  BUTH      C3             -3.0323087291      -13.8459897254      -22.4307512059  BUTH      227             0.0000000000
     19031       862  BUTH      DC3            -3.0197166089      -13.8332119200      -22.4458348723  BUTH      227             0.0000000000
     19032       862  BUTH      C4             -3.0642661021      -14.8441001721      -23.3609520725  BUTH      227             0.0000000000
     19033       862  BUTH      DC4            -3.0600463853      -14.8143604963      -23.3366110685  BUTH      227             0.0000000000
     19034       862  BUTH      O1             -2.0376056642      -15.5372956864      -23.3864045154  BUTH      227             0.0000000000
     19035       862  BUTH      DO1            -2.0804977056      -15.5378441549      -23.3905809990  BUTH      227             0.0000000000
     19036       862  BUTH      O2             -4.1400868320      -15.3697399164      -23.7080510112  BUTH      227             0.0000000000
     19037       862  BUTH      DO2            -4.1399770318      -15.3490115229      -23.6763914060  BUTH      227             0.0000000000
     19038       862  BUTH      H1             -0.6871749111      -12.6375211151      -23.3819171130  BUTH      227             0.0000000000
     19039       862  BUTH      H2             -1.7334420152      -12.9922195161      -24.7858115547  BUTH      227             0.0000000000
     19040       862  BUTH      H3             -1.4779607200      -11.2926929888      -24.2914695909  BUTH      227             0.0000000000
     19041       862  BUTH      H4             -3.7349012358      -12.1430632984      -23.5672976438  BUTH      227             0.0000000000
     19042       862  BUTH      H5             -2.7364020795      -11.7000779270      -22.1459111754  BUTH      227             0.0000000000
     19043       862  BUTH      H6             -3.9839574589      -13.8054123838      -21.8588778148  BUTH      227             0.0000000000
     19044       862  BUTH      H7             -2.2542567552      -13.9765377718      -21.6485023110  BUTH      227             0.0000000000
     19045       862  BUTH      H8             -3.8134605893      -16.1560329963      -24.1727643532  BUTH      227             0.0000000000
     19046       862  BUTH      H9             -2.1000674600      -16.3329747948      -23.9359081828  BUTH      227             0.0000000000
     19047       862  BUTH      LPO11          -1.8097239946      -15.4225545209      -23.1468123419  BUTH      227             0.0000000000
     19048       862  BUTH      LPO12          -2.0671090444      -15.7859807882      -23.6309147824  BUTH      227             0.0000000000
     19049       862  BUTH      LPO21          -4.2653087596      -15.5176662356      -23.4166110124  BUTH      227             0.0000000000
     19050       862  BUTH      LPO22          -4.2494521105      -15.1782141322      -23.9798176572  BUTH      227             0.0000000000
     19051       863  BUTH      C1              4.4909542316       -2.4960845290        8.5181493555  BUTH      228             0.0000000000
     19052       863  BUTH      DC1             4.4860155176       -2.5707500108        8.4719058374  BUTH      228             0.0000000000
     19053       863  BUTH      C2              4.6909000139       -2.2343296747        7.0312156339  BUTH      228             0.0000000000
     19054       863  BUTH      DC2             4.7132137296       -2.2159001707        7.0072132228  BUTH      228             0.0000000000
     19055       863  BUTH      C3              3.7568532329       -3.1184354409        6.1955447259  BUTH      228             0.0000000000
     19056       863  BUTH      DC3             3.7677665385       -3.2020478057        6.2047319684  BUTH      228             0.0000000000
     19057       863  BUTH      C4              3.8705875894       -4.4291716078        6.5215163627  BUTH      228             0.0000000000
     19058       863  BUTH      DC4             3.8792508108       -4.4628679509        6.5201305967  BUTH      228             0.0000000000
     19059       863  BUTH      O1              2.8747047873       -4.9753013726        7.0216009042  BUTH      228             0.0000000000
     19060       863  BUTH      DO1             2.9191815021       -5.0379854517        6.9787598430  BUTH      228             0.0000000000
     19061       863  BUTH      O2              4.4972410889       -5.2288718465        5.8421957723  BUTH      228             0.0000000000
     19062       863  BUTH      DO2             4.5098519185       -5.2484423073        5.8172263797  BUTH      228             0.0000000000
     19063       863  BUTH      H1              3.4349591971       -2.3026161736        8.8040960019  BUTH      228             0.0000000000
     19064       863  BUTH      H2              4.7147641226       -3.5461781688        8.8036900376  BUTH      228             0.0000000000
     19065       863  BUTH      H3              5.1226102572       -1.8163158666        9.1290881666  BUTH      228             0.0000000000
     19066       863  BUTH      H4              5.7527445616       -2.3997645549        6.7493673468  BUTH      228             0.0000000000
     19067       863  BUTH      H5              4.4697438752       -1.1658234913        6.8221570317  BUTH      228             0.0000000000
     19068       863  BUTH      H6              3.9970086618       -2.8994300546        5.1331497849  BUTH      228             0.0000000000
     19069       863  BUTH      H7              2.7455097739       -2.6837666538        6.3457727377  BUTH      228             0.0000000000
     19070       863  BUTH      H8              3.9023904067       -5.9413293304        6.1240769522  BUTH      228             0.0000000000
     19071       863  BUTH      H9              2.9480855191       -5.9364600118        7.1203447068  BUTH      228             0.0000000000
     19072       863  BUTH      LPO11           2.6127483577       -4.7447764905        7.0487506325  BUTH      228             0.0000000000
     19073       863  BUTH      LPO12           2.9445379349       -5.3111842773        7.0909262662  BUTH      228             0.0000000000
     19074       863  BUTH      LPO21           4.3943546431       -5.1724776840        5.5124472656  BUTH      228             0.0000000000
     19075       863  BUTH      LPO22           4.7879791237       -5.2986828195        6.0241238437  BUTH      228             0.0000000000
     19076       864  BUTH      C1             21.2316829927       -3.6285515210      -24.3922404974  BUTH      229             0.0000000000
     19077       864  BUTH      DC1            21.2391361317       -3.6180499414      -24.4260727290  BUTH      229             0.0000000000
     19078       864  BUTH      C2             22.3964277976       -4.6030065856      -24.2565063157  BUTH      229             0.0000000000
     19079       864  BUTH      DC2            22.3743891690       -4.5815152020      -24.1941377771  BUTH      229             0.0000000000
     19080       864  BUTH      C3             23.3637752516       -4.5590619112      -25.4630610016  BUTH      229             0.0000000000
     19081       864  BUTH      DC3            23.3083579940       -4.5493465548      -25.5009457755  BUTH      229             0.0000000000
     19082       864  BUTH      C4             22.7832653982       -4.7124765388      -26.6825401831  BUTH      229             0.0000000000
     19083       864  BUTH      DC4            22.7754964717       -4.7045277786      -26.6876378041  BUTH      229             0.0000000000
     19084       864  BUTH      O1             22.7954262973       -3.7181205800      -27.4272929409  BUTH      229             0.0000000000
     19085       864  BUTH      DO1            22.7923050703       -3.7681430373      -27.4584316748  BUTH      229             0.0000000000
     19086       864  BUTH      O2             22.7077400513       -5.7937684867      -27.2626865440  BUTH      229             0.0000000000
     19087       864  BUTH      DO2            22.7077942427       -5.7863750492      -27.2647261326  BUTH      229             0.0000000000
     19088       864  BUTH      H1             21.5997042591       -2.5879461009      -24.5188173815  BUTH      229             0.0000000000
     19089       864  BUTH      H2             20.6042332002       -3.8812197710      -25.2735954278  BUTH      229             0.0000000000
     19090       864  BUTH      H3             20.5826736441       -3.6620787495      -23.4911390646  BUTH      229             0.0000000000
     19091       864  BUTH      H4             22.0050487121       -5.6374963666      -24.1517480011  BUTH      229             0.0000000000
     19092       864  BUTH      H5             22.9677674364       -4.3819228998      -23.3296762224  BUTH      229             0.0000000000
     19093       864  BUTH      H6             24.1173113050       -5.3512814408      -25.2658488474  BUTH      229             0.0000000000
     19094       864  BUTH      H7             23.9401722299       -3.6163765437      -25.3471652669  BUTH      229             0.0000000000
     19095       864  BUTH      H8             22.6726921450       -5.4328031251      -28.1623396175  BUTH      229             0.0000000000
     19096       864  BUTH      H9             22.4589969618       -3.8801923818      -28.3214456318  BUTH      229             0.0000000000
     19097       864  BUTH      LPO11          22.9548866340       -3.4507279986      -27.2673754359  BUTH      229             0.0000000000
     19098       864  BUTH      LPO12          22.6383094084       -3.7938972853      -27.7307269109  BUTH      229             0.0000000000
     19099       864  BUTH      LPO21          23.0325899574       -5.9238137033      -27.2548903820  BUTH      229             0.0000000000
     19100       864  BUTH      LPO22          22.3763324166       -5.8973826114      -27.2187195930  BUTH      229             0.0000000000
     19101       865  BUTH      C1             20.2739554246       -3.0347551506       11.0137330514  BUTH      230             0.0000000000
     19102       865  BUTH      DC1            20.2159483025       -3.0536599530       11.0275568894  BUTH      230             0.0000000000
     19103       865  BUTH      C2             20.8512795345       -1.8817859936       11.8319040594  BUTH      230             0.0000000000
     19104       865  BUTH      DC2            20.8900963303       -1.9545218606       11.8359825416  BUTH      230             0.0000000000
     19105       865  BUTH      C3             19.7819874825       -0.9958895317       12.5136574292  BUTH      230             0.0000000000
     19106       865  BUTH      DC3            19.7676813422       -1.0205402506       12.4547252536  BUTH      230             0.0000000000
     19107       865  BUTH      C4             18.7727231517       -0.5019588156       11.7415014506  BUTH      230             0.0000000000
     19108       865  BUTH      DC4            18.7760490969       -0.5352257825       11.7177637669  BUTH      230             0.0000000000
     19109       865  BUTH      O1             17.7307535375       -1.1890636388       11.6760178327  BUTH      230             0.0000000000
     19110       865  BUTH      DO1            17.7216429087       -1.1785842814       11.6547651437  BUTH      230             0.0000000000
     19111       865  BUTH      O2             18.9327067351        0.4679743243       10.9452462930  BUTH      230             0.0000000000
     19112       865  BUTH      DO2            18.9367174876        0.4512273705       10.9332219480  BUTH      230             0.0000000000
     19113       865  BUTH      H1             19.6396510427       -3.6967190139       11.6412542035  BUTH      230             0.0000000000
     19114       865  BUTH      H2             19.6417844231       -2.6338327631       10.1927933066  BUTH      230             0.0000000000
     19115       865  BUTH      H3             21.0881049292       -3.6325358042       10.5509805534  BUTH      230             0.0000000000
     19116       865  BUTH      H4             21.4537114137       -1.2359868862       11.1578563284  BUTH      230             0.0000000000
     19117       865  BUTH      H5             21.5545346311       -2.2605875567       12.6040845088  BUTH      230             0.0000000000
     19118       865  BUTH      H6             20.3478950192       -0.1650206005       12.9866547643  BUTH      230             0.0000000000
     19119       865  BUTH      H7             19.4092096796       -1.5720763098       13.3873659087  BUTH      230             0.0000000000
     19120       865  BUTH      H8             18.1071992409        0.9528494835       11.1012381419  BUTH      230             0.0000000000
     19121       865  BUTH      H9             17.0187925364       -0.7862007063       11.1566201138  BUTH      230             0.0000000000
     19122       865  BUTH      LPO11          17.7659639927       -1.4786381642       11.8694262557  BUTH      230             0.0000000000
     19123       865  BUTH      LPO12          17.4959478746       -1.0311079515       11.4700656502  BUTH      230             0.0000000000
     19124       865  BUTH      LPO21          19.1601312182        0.6800408230       11.1058884563  BUTH      230             0.0000000000
     19125       865  BUTH      LPO22          18.8675854810        0.3357933551       10.6277759579  BUTH      230             0.0000000000
     19126       866  BUTH      C1            -13.8166183806       19.7591512384       10.8812068155  BUTH      231             0.0000000000
     19127       866  BUTH      DC1           -13.7725402199       19.7591775010       10.8881273609  BUTH      231             0.0000000000
     19128       866  BUTH      C2            -13.6684164765       18.5323448389       11.7711816575  BUTH      231             0.0000000000
     19129       866  BUTH      DC2           -13.7432706287       18.5428239938       11.7895844324  BUTH      231             0.0000000000
     19130       866  BUTH      C3            -12.2250224820       18.3565714167       12.2855484139  BUTH      231             0.0000000000
     19131       866  BUTH      DC3           -12.2296863154       18.3695847314       12.2473350162  BUTH      231             0.0000000000
     19132       866  BUTH      C4            -11.2708674407       18.4759227527       11.3204092760  BUTH      231             0.0000000000
     19133       866  BUTH      DC4           -11.2892926434       18.4877202750       11.3276328713  BUTH      231             0.0000000000
     19134       866  BUTH      O1            -10.3270987267       19.2231638028       11.5833625465  BUTH      231             0.0000000000
     19135       866  BUTH      DO1           -10.3219554104       19.1632472571       11.5464229638  BUTH      231             0.0000000000
     19136       866  BUTH      O2            -10.9765477091       17.5845375086       10.5899396061  BUTH      231             0.0000000000
     19137       866  BUTH      DO2           -10.9894146835       17.6031557498       10.5981420831  BUTH      231             0.0000000000
     19138       866  BUTH      H1            -13.5184651951       20.6823229763       11.4226674527  BUTH      231             0.0000000000
     19139       866  BUTH      H2            -13.1819929863       19.6741347835        9.9732729999  BUTH      231             0.0000000000
     19140       866  BUTH      H3            -14.8693357031       19.8752551115       10.5456071589  BUTH      231             0.0000000000
     19141       866  BUTH      H4            -13.9541592430       17.6320572917       11.1862419993  BUTH      231             0.0000000000
     19142       866  BUTH      H5            -14.3661953056       18.5977254909       12.6332437653  BUTH      231             0.0000000000
     19143       866  BUTH      H6            -12.2042442944       17.3561834176       12.7683663094  BUTH      231             0.0000000000
     19144       866  BUTH      H7            -12.1081353171       19.0690919413       13.1299256356  BUTH      231             0.0000000000
     19145       866  BUTH      H8            -10.0173519015       17.7281939154       10.6043006507  BUTH      231             0.0000000000
     19146       866  BUTH      H9             -9.6427988496       19.2517876076       10.8978879984  BUTH      231             0.0000000000
     19147       866  BUTH      LPO11         -10.3688166232       19.3609860375       11.9023682655  BUTH      231             0.0000000000
     19148       866  BUTH      LPO12         -10.1020021052       19.2305340385       11.3154498917  BUTH      231             0.0000000000
     19149       866  BUTH      LPO21         -11.0054211065       17.2958660163       10.7857331107  BUTH      231             0.0000000000
     19150       866  BUTH      LPO22         -11.0583621794       17.7008963586       10.2701474698  BUTH      231             0.0000000000
     19151       867  BUTH      C1             22.6150589190       -7.8029437407       -9.7741504915  BUTH      232             0.0000000000
     19152       867  BUTH      DC1            22.6518704065       -7.7470725835       -9.7237345119  BUTH      232             0.0000000000
     19153       867  BUTH      C2             22.3744591362       -6.5635681641       -8.9295210703  BUTH      232             0.0000000000
     19154       867  BUTH      DC2            22.2824064507       -6.5319719179       -8.9310881608  BUTH      232             0.0000000000
     19155       867  BUTH      C3             23.6747494340       -5.7796323125       -8.7192838025  BUTH      232             0.0000000000
     19156       867  BUTH      DC3            23.6877661292       -5.8212764006       -8.7114806306  BUTH      232             0.0000000000
     19157       867  BUTH      C4             24.6988309389       -6.5815149071       -8.3213188487  BUTH      232             0.0000000000
     19158       867  BUTH      DC4            24.6902977493       -6.5817279224       -8.3176460498  BUTH      232             0.0000000000
     19159       867  BUTH      O1             25.6154742939       -6.7633366216       -9.1317723067  BUTH      232             0.0000000000
     19160       867  BUTH      DO1            25.6269320718       -6.7640272653       -9.0527915532  BUTH      232             0.0000000000
     19161       867  BUTH      O2             25.0559069490       -6.6460210014       -7.1573938421  BUTH      232             0.0000000000
     19162       867  BUTH      DO2            25.0502492165       -6.6419007852       -7.1587027691  BUTH      232             0.0000000000
     19163       867  BUTH      H1             22.9991203275       -7.5637786544      -10.7888513824  BUTH      232             0.0000000000
     19164       867  BUTH      H2             23.3333204490       -8.5106092753       -9.3076412557  BUTH      232             0.0000000000
     19165       867  BUTH      H3             21.6568218374       -8.3492448954       -9.9070329285  BUTH      232             0.0000000000
     19166       867  BUTH      H4             21.9810054897       -6.8815667259       -7.9403840000  BUTH      232             0.0000000000
     19167       867  BUTH      H5             21.6091867828       -5.9165322341       -9.4091289627  BUTH      232             0.0000000000
     19168       867  BUTH      H6             23.4423326973       -4.9798405828       -7.9840038217  BUTH      232             0.0000000000
     19169       867  BUTH      H7             23.8589877306       -5.2216005305       -9.6621399847  BUTH      232             0.0000000000
     19170       867  BUTH      H8             25.9864839881       -6.8279289312       -7.3619320525  BUTH      232             0.0000000000
     19171       867  BUTH      H9             26.3895757004       -7.2250304801       -8.7760100356  BUTH      232             0.0000000000
     19172       867  BUTH      LPO11          25.5502445398       -6.5880148023       -9.4275887005  BUTH      232             0.0000000000
     19173       867  BUTH      LPO12          25.8581173171       -6.9738494284       -8.9928164810  BUTH      232             0.0000000000
     19174       867  BUTH      LPO21          25.0725879932       -6.3137417217       -7.0487097905  BUTH      232             0.0000000000
     19175       867  BUTH      LPO22          24.9469772616       -6.9594159905       -7.0459581926  BUTH      232             0.0000000000
     19176       868  BUTH      C1             14.4726670893       21.8419282814        0.5759527125  BUTH      233             0.0000000000
     19177       868  BUTH      DC1            14.4652936358       21.8220075445        0.5656681539  BUTH      233             0.0000000000
     19178       868  BUTH      C2             13.2094057385       21.3752261460        1.2871787967  BUTH      233             0.0000000000
     19179       868  BUTH      DC2            13.1836663458       21.4591797106        1.2427633588  BUTH      233             0.0000000000
     19180       868  BUTH      C3             13.5319708650       20.3472494304        2.3861910376  BUTH      233             0.0000000000
     19181       868  BUTH      DC3            13.5815698822       20.3473103817        2.3249741767  BUTH      233             0.0000000000
     19182       868  BUTH      C4             14.3383560243       19.3453107572        1.9431879524  BUTH      233             0.0000000000
     19183       868  BUTH      DC4            14.3290630413       19.3455400141        1.9226501327  BUTH      233             0.0000000000
     19184       868  BUTH      O1             15.3790594000       19.1327045538        2.5652820583  BUTH      233             0.0000000000
     19185       868  BUTH      DO1            15.3202567779       19.0517591235        2.5172909381  BUTH      233             0.0000000000
     19186       868  BUTH      O2             13.9535020563       18.3336888100        1.4202759482  BUTH      233             0.0000000000
     19187       868  BUTH      DO2            13.9545483444       18.3209943624        1.3976339144  BUTH      233             0.0000000000
     19188       868  BUTH      H1             15.2361590584       22.1982621706        1.3001261535  BUTH      233             0.0000000000
     19189       868  BUTH      H2             14.9376480337       21.0254546964       -0.0169086605  BUTH      233             0.0000000000
     19190       868  BUTH      H3             14.2504505052       22.6883971751       -0.1084676276  BUTH      233             0.0000000000
     19191       868  BUTH      H4             12.5109202043       20.9034982354        0.5633613207  BUTH      233             0.0000000000
     19192       868  BUTH      H5             12.6758805131       22.2333959474        1.7489324387  BUTH      233             0.0000000000
     19193       868  BUTH      H6             12.5510121686       19.9840882575        2.7605638442  BUTH      233             0.0000000000
     19194       868  BUTH      H7             13.9521469213       20.9184060696        3.2414998566  BUTH      233             0.0000000000
     19195       868  BUTH      H8             14.6603050400       17.8429836297        1.8680906066  BUTH      233             0.0000000000
     19196       868  BUTH      H9             15.9199892700       18.4089271021        2.2152790925  BUTH      233             0.0000000000
     19197       868  BUTH      LPO11          15.4057647919       19.3557303652        2.8336964943  BUTH      233             0.0000000000
     19198       868  BUTH      LPO12          15.5547641410       18.8683281993        2.4178609365  BUTH      233             0.0000000000
     19199       868  BUTH      LPO21          13.6690744638       18.2378410747        1.6003152668  BUTH      233             0.0000000000
     19200       868  BUTH      LPO22          14.0694124961       18.3491235453        1.0903872717  BUTH      233             0.0000000000
     19201       869  BUTH      C1             -7.1164160822        5.0270695130        9.8088832264  BUTH      234             0.0000000000
     19202       869  BUTH      DC1            -7.1264649996        4.9550675159        9.7864905337  BUTH      234             0.0000000000
     19203       869  BUTH      C2             -8.3766462675        4.7899271367       10.6395592688  BUTH      234             0.0000000000
     19204       869  BUTH      DC2            -8.3746460473        4.8262579326       10.6410703298  BUTH      234             0.0000000000
     19205       869  BUTH      C3             -8.3898255290        3.4704911316       11.4229223285  BUTH      234             0.0000000000
     19206       869  BUTH      DC3            -8.3686811419        3.4079630899       11.3582387034  BUTH      234             0.0000000000
     19207       869  BUTH      C4             -8.3307323715        2.3720905132       10.6381732035  BUTH      234             0.0000000000
     19208       869  BUTH      DC4            -8.3278801558        2.3373480968       10.6237157711  BUTH      234             0.0000000000
     19209       869  BUTH      O1             -7.3303961864        1.6596355743       10.7680999317  BUTH      234             0.0000000000
     19210       869  BUTH      DO1            -7.3842587025        1.6070578650       10.7490181873  BUTH      234             0.0000000000
     19211       869  BUTH      O2             -9.3039721430        1.6838663142       10.3861250843  BUTH      234             0.0000000000
     19212       869  BUTH      DO2            -9.3063428975        1.6667635327       10.4075925274  BUTH      234             0.0000000000
     19213       869  BUTH      H1             -6.2047161259        4.9881894740       10.4426122952  BUTH      234             0.0000000000
     19214       869  BUTH      H2             -6.9829115149        4.2662508859        9.0103517323  BUTH      234             0.0000000000
     19215       869  BUTH      H3             -7.1375532410        6.0299329593        9.3312441059  BUTH      234             0.0000000000
     19216       869  BUTH      H4             -9.3080726555        4.8531920109       10.0372608051  BUTH      234             0.0000000000
     19217       869  BUTH      H5             -8.5450648058        5.6294662857       11.3474647790  BUTH      234             0.0000000000
     19218       869  BUTH      H6             -9.3418730863        3.5116512982       11.9940898082  BUTH      234             0.0000000000
     19219       869  BUTH      H7             -7.5964022884        3.5687016493       12.1943853901  BUTH      234             0.0000000000
     19220       869  BUTH      H8             -8.7961563858        0.9157695811       10.0810831769  BUTH      234             0.0000000000
     19221       869  BUTH      H9             -7.3296189290        0.8608943023       10.2194900737  BUTH      234             0.0000000000
     19222       869  BUTH      LPO11          -7.1177340904        1.7950054145       11.0108958116  BUTH      234             0.0000000000
     19223       869  BUTH      LPO12          -7.3491304837        1.3861473495       10.5504919884  BUTH      234             0.0000000000
     19224       869  BUTH      LPO21          -9.4188616186        1.5715395727       10.6970641644  BUTH      234             0.0000000000
     19225       869  BUTH      LPO22          -9.4279969236        1.8090775741       10.0837346179  BUTH      234             0.0000000000
     19226       870  BUTH      C1            -24.9945311497       -4.4496510406       -2.6616665876  BUTH      235             0.0000000000
     19227       870  BUTH      DC1           -25.0168955526       -4.4520492907       -2.6593146064  BUTH      235             0.0000000000
     19228       870  BUTH      C2            -25.1334463254       -4.3398736538       -4.1663887258  BUTH      235             0.0000000000
     19229       870  BUTH      DC2           -25.0661794486       -4.3270148047       -4.1555267002  BUTH      235             0.0000000000
     19230       870  BUTH      C3            -26.5216062053       -3.8295601026       -4.6170339974  BUTH      235             0.0000000000
     19231       870  BUTH      DC3           -26.5471520763       -3.8503261698       -4.5848982794  BUTH      235             0.0000000000
     19232       870  BUTH      C4            -27.5867417974       -4.5724813905       -4.2177521532  BUTH      235             0.0000000000
     19233       870  BUTH      DC4           -27.5883648208       -4.5631936778       -4.2197789014  BUTH      235             0.0000000000
     19234       870  BUTH      O1            -28.2892841919       -4.0214321522       -3.3674262543  BUTH      235             0.0000000000
     19235       870  BUTH      DO1           -28.3353840906       -4.0732464915       -3.4318054344  BUTH      235             0.0000000000
     19236       870  BUTH      O2            -28.3159917784       -5.1681452807       -4.9808581116  BUTH      235             0.0000000000
     19237       870  BUTH      DO2           -28.3374540695       -5.1557708534       -4.9962510923  BUTH      235             0.0000000000
     19238       870  BUTH      H1            -25.1801896660       -3.4668467297       -2.1779852833  BUTH      235             0.0000000000
     19239       870  BUTH      H2            -25.7081300536       -5.1906306311       -2.2420872125  BUTH      235             0.0000000000
     19240       870  BUTH      H3            -23.9602083136       -4.7731021349       -2.4169695091  BUTH      235             0.0000000000
     19241       870  BUTH      H4            -24.9362075531       -5.3215832891       -4.6477036527  BUTH      235             0.0000000000
     19242       870  BUTH      H5            -24.3246166608       -3.6551428084       -4.4999441836  BUTH      235             0.0000000000
     19243       870  BUTH      H6            -26.4795472653       -3.7632571233       -5.7252559792  BUTH      235             0.0000000000
     19244       870  BUTH      H7            -26.5537134144       -2.7742535810       -4.2711752509  BUTH      235             0.0000000000
     19245       870  BUTH      H8            -29.0565052126       -5.0717304223       -4.3617910484  BUTH      235             0.0000000000
     19246       870  BUTH      H9            -29.1304493467       -4.4640036208       -3.1789251204  BUTH      235             0.0000000000
     19247       870  BUTH      LPO11         -28.1584915218       -3.7061280616       -3.2901177302  BUTH      235             0.0000000000
     19248       870  BUTH      LPO12         -28.5564915562       -4.2297374140       -3.2796245326  BUTH      235             0.0000000000
     19249       870  BUTH      LPO21         -28.3977011255       -4.9373454504       -5.2309681293  BUTH      235             0.0000000000
     19250       870  BUTH      LPO22         -28.2325379449       -5.5061344341       -4.9448193840  BUTH      235             0.0000000000
     19251       871  BUTH      C1             -7.3369542473       -8.5167949527        6.4144554174  BUTH      236             0.0000000000
     19252       871  BUTH      DC1            -7.4362316372       -8.5591863786        6.2991573436  BUTH      236             0.0000000000
     19253       871  BUTH      C2             -8.5150309016       -9.4583277306        6.4391360042  BUTH      236             0.0000000000
     19254       871  BUTH      DC2            -8.5652993277       -9.5088758555        6.4465257013  BUTH      236             0.0000000000
     19255       871  BUTH      C3             -8.6945498283      -10.0608528325        5.0457099670  BUTH      236             0.0000000000
     19256       871  BUTH      DC3            -8.7259296983      -10.0119516842        4.9482072944  BUTH      236             0.0000000000
     19257       871  BUTH      C4             -8.9570644966       -9.1971300796        4.0391779831  BUTH      236             0.0000000000
     19258       871  BUTH      DC4            -8.9950646154       -9.1544442220        4.0067400853  BUTH      236             0.0000000000
     19259       871  BUTH      O1             -8.1835253341       -9.2541769546        3.0728037576  BUTH      236             0.0000000000
     19260       871  BUTH      DO1            -8.2871484989       -9.2404435575        3.0386979554  BUTH      236             0.0000000000
     19261       871  BUTH      O2            -10.0904326908       -9.0665524104        3.5860243809  BUTH      236             0.0000000000
     19262       871  BUTH      DO2           -10.1382691633       -9.0563486686        3.5770603017  BUTH      236             0.0000000000
     19263       871  BUTH      H1             -6.3938343138       -9.0687714236        6.2140364399  BUTH      236             0.0000000000
     19264       871  BUTH      H2             -7.4273822248       -7.7221529989        5.6432952860  BUTH      236             0.0000000000
     19265       871  BUTH      H3             -7.1968915241       -8.0090286635        7.3926562299  BUTH      236             0.0000000000
     19266       871  BUTH      H4             -9.4267095950       -8.9264137117        6.7858786145  BUTH      236             0.0000000000
     19267       871  BUTH      H5             -8.3069543723      -10.2554906216        7.1844926189  BUTH      236             0.0000000000
     19268       871  BUTH      H6             -9.4874315307      -10.8291175775        5.1699230456  BUTH      236             0.0000000000
     19269       871  BUTH      H7             -7.7564238178      -10.6409594839        4.9126052656  BUTH      236             0.0000000000
     19270       871  BUTH      H8             -9.7265601187       -9.1673060972        2.6925225925  BUTH      236             0.0000000000
     19271       871  BUTH      H9             -8.4672665931       -8.7526550749        2.2937481100  BUTH      236             0.0000000000
     19272       871  BUTH      LPO11          -7.9402951906       -9.4996114547        3.1284904120  BUTH      236             0.0000000000
     19273       871  BUTH      LPO12          -8.2773014443       -9.0197643730        2.8304057735  BUTH      236             0.0000000000
     19274       871  BUTH      LPO21         -10.2488778093       -9.3743002357        3.6378550708  BUTH      236             0.0000000000
     19275       871  BUTH      LPO22         -10.1591914704       -8.7237004208        3.6010158259  BUTH      236             0.0000000000
     19276       872  BUTH      C1            -21.4633140237      -18.3911085413        8.6862376696  BUTH      237             0.0000000000
     19277       872  BUTH      DC1           -21.5177205678      -18.3724685930        8.6395352289  BUTH      237             0.0000000000
     19278       872  BUTH      C2            -22.9844984604      -18.4476369601        8.7683160708  BUTH      237             0.0000000000
     19279       872  BUTH      DC2           -23.0005845547      -18.4660150962        8.8346101367  BUTH      237             0.0000000000
     19280       872  BUTH      C3            -23.6272545401      -18.7320219367        7.3977680400  BUTH      237             0.0000000000
     19281       872  BUTH      DC3           -23.5971344560      -18.6961078842        7.3681321472  BUTH      237             0.0000000000
     19282       872  BUTH      C4            -23.1872919871      -17.8793113701        6.4365844604  BUTH      237             0.0000000000
     19283       872  BUTH      DC4           -23.1860326087      -17.8687485387        6.4374433231  BUTH      237             0.0000000000
     19284       872  BUTH      O1            -22.5980209308      -18.3727545130        5.4719020984  BUTH      237             0.0000000000
     19285       872  BUTH      DO1           -22.6578064211      -18.2952813734        5.4525540191  BUTH      237             0.0000000000
     19286       872  BUTH      O2            -23.8330159714      -16.9623863594        6.0681220774  BUTH      237             0.0000000000
     19287       872  BUTH      DO2           -23.8404250898      -16.9551831552        6.0647823281  BUTH      237             0.0000000000
     19288       872  BUTH      H1            -21.0457076515      -19.3458312629        8.3009709531  BUTH      237             0.0000000000
     19289       872  BUTH      H2            -21.1124623549      -17.5766084269        8.0170488536  BUTH      237             0.0000000000
     19290       872  BUTH      H3            -21.0114217712      -18.2192229560        9.6865224981  BUTH      237             0.0000000000
     19291       872  BUTH      H4            -23.3677137017      -17.4747160095        9.1436717730  BUTH      237             0.0000000000
     19292       872  BUTH      H5            -23.2943096428      -19.2304961536        9.4932088315  BUTH      237             0.0000000000
     19293       872  BUTH      H6            -24.7240590977      -18.6620887605        7.5604029486  BUTH      237             0.0000000000
     19294       872  BUTH      H7            -23.4568777090      -19.8092142384        7.1857551144  BUTH      237             0.0000000000
     19295       872  BUTH      H8            -23.5122175334      -17.0621433838        5.1581567483  BUTH      237             0.0000000000
     19296       872  BUTH      H9            -22.4095243160      -17.7532990026        4.7509964895  BUTH      237             0.0000000000
     19297       872  BUTH      LPO11         -22.5798656387      -18.7204371274        5.5077794587  BUTH      237             0.0000000000
     19298       872  BUTH      LPO12         -22.5017957477      -18.1208516938        5.2487750408  BUTH      237             0.0000000000
     19299       872  BUTH      LPO21         -24.1603042445      -17.0842775057        6.0452106219  BUTH      237             0.0000000000
     19300       872  BUTH      LPO22         -23.6596169083      -16.6786196151        6.1772513574  BUTH      237             0.0000000000
     19301       873  BUTH      C1             -0.4733268625       18.6425748378       12.1185166505  BUTH      238             0.0000000000
     19302       873  BUTH      DC1            -0.4200210691       18.6894695347       12.1260263019  BUTH      238             0.0000000000
     19303       873  BUTH      C2              0.7884016132       17.9752453479       12.6559372857  BUTH      238             0.0000000000
     19304       873  BUTH      DC2             0.7617390066       17.9549157464       12.6792747638  BUTH      238             0.0000000000
     19305       873  BUTH      C3              1.8530099395       18.9957266289       13.0934427978  BUTH      238             0.0000000000
     19306       873  BUTH      DC3             1.8424007350       19.0691396692       13.0530032057  BUTH      238             0.0000000000
     19307       873  BUTH      C4              2.0658415207       19.9961383905       12.1977547275  BUTH      238             0.0000000000
     19308       873  BUTH      DC4             2.0732672056       20.0181732463       12.1813783327  BUTH      238             0.0000000000
     19309       873  BUTH      O1              1.5598268283       21.1021863567       12.4601847289  BUTH      238             0.0000000000
     19310       873  BUTH      DO1             1.6125922846       21.1201929534       12.4190699476  BUTH      238             0.0000000000
     19311       873  BUTH      O2              3.1038973553       20.0991809988       11.5535839507  BUTH      238             0.0000000000
     19312       873  BUTH      DO2             3.1205885245       20.1031816320       11.5610621418  BUTH      238             0.0000000000
     19313       873  BUTH      H1             -0.9605599998       19.2761096680       12.8902410111  BUTH      238             0.0000000000
     19314       873  BUTH      H2             -0.2662900283       19.2754203161       11.2291554465  BUTH      238             0.0000000000
     19315       873  BUTH      H3             -1.2203545291       17.8817562670       11.8063856374  BUTH      238             0.0000000000
     19316       873  BUTH      H4              1.2431204270       17.3290966546       11.8748843639  BUTH      238             0.0000000000
     19317       873  BUTH      H5              0.5446500320       17.2907403922       13.4963890289  BUTH      238             0.0000000000
     19318       873  BUTH      H6              2.7633781447       18.3981398082       13.3135353302  BUTH      238             0.0000000000
     19319       873  BUTH      H7              1.5032659964       19.3410599977       14.0898087140  BUTH      238             0.0000000000
     19320       873  BUTH      H8              2.9924217258       21.0436101799       11.3624643392  BUTH      238             0.0000000000
     19321       873  BUTH      H9              1.8343101334       21.8210043025       11.8711850039  BUTH      238             0.0000000000
     19322       873  BUTH      LPO11           1.3857688375       21.0852892670       12.7633650452  BUTH      238             0.0000000000
     19323       873  BUTH      LPO12           1.6365225791       21.3318980329       12.2074985448  BUTH      238             0.0000000000
     19324       873  BUTH      LPO21           3.3593886567       20.1068209914       11.7926777093  BUTH      238             0.0000000000
     19325       873  BUTH      LPO22           3.0325128352       19.9567861267       11.2419303759  BUTH      238             0.0000000000
     19326       874  BUTH      C1            -22.5296149962       10.2031745023       16.5695354369  BUTH      239             0.0000000000
     19327       874  BUTH      DC1           -22.5063004453       10.1392389653       16.6071815630  BUTH      239             0.0000000000
     19328       874  BUTH      C2            -23.1067769668        9.3552640041       17.6729489267  BUTH      239             0.0000000000
     19329       874  BUTH      DC2           -23.2059578651        9.3392400939       17.6545524299  BUTH      239             0.0000000000
     19330       874  BUTH      C3            -22.0714315905        9.2663343271       18.7986433924  BUTH      239             0.0000000000
     19331       874  BUTH      DC3           -22.0474058102        9.2328430191       18.7416891847  BUTH      239             0.0000000000
     19332       874  BUTH      C4            -20.8579072051        8.8284468933       18.3683006407  BUTH      239             0.0000000000
     19333       874  BUTH      DC4           -20.8625241795        8.8072964660       18.3605096315  BUTH      239             0.0000000000
     19334       874  BUTH      O1            -19.8672905107        9.4722727291       18.7237607817  BUTH      239             0.0000000000
     19335       874  BUTH      DO1           -19.8699935931        9.3859852699       18.7071129868  BUTH      239             0.0000000000
     19336       874  BUTH      O2            -20.5935243074        7.6473954990       18.1386600159  BUTH      239             0.0000000000
     19337       874  BUTH      DO2           -20.6039315280        7.6148691978       18.1350265317  BUTH      239             0.0000000000
     19338       874  BUTH      H1            -22.2311148993       11.1775496215       17.0120417314  BUTH      239             0.0000000000
     19339       874  BUTH      H2            -21.6232282995        9.7567053615       16.1075295228  BUTH      239             0.0000000000
     19340       874  BUTH      H3            -23.2735647775       10.4013886827       15.7685542502  BUTH      239             0.0000000000
     19341       874  BUTH      H4            -23.3557778094        8.3426356467       17.2896691440  BUTH      239             0.0000000000
     19342       874  BUTH      H5            -24.0319651695        9.8319564338       18.0616803470  BUTH      239             0.0000000000
     19343       874  BUTH      H6            -22.5475127098        8.6095856177       19.5578198560  BUTH      239             0.0000000000
     19344       874  BUTH      H7            -22.0467220281       10.2643620685       19.2861380743  BUTH      239             0.0000000000
     19345       874  BUTH      H8            -19.6507042787        7.8000275631       18.3080525970  BUTH      239             0.0000000000
     19346       874  BUTH      H9            -19.0194666540        9.0849209684       18.4589696884  BUTH      239             0.0000000000
     19347       874  BUTH      LPO11         -19.9653891952        9.7420582486       18.9239917024  BUTH      239             0.0000000000
     19348       874  BUTH      LPO12         -19.5769616161        9.3274222895       18.5925072747  BUTH      239             0.0000000000
     19349       874  BUTH      LPO21         -20.6913994387        7.4723605670       18.4255105541  BUTH      239             0.0000000000
     19350       874  BUTH      LPO22         -20.6005346113        7.6162448263       17.7901195000  BUTH      239             0.0000000000
     19351       875  BUTH      C1             13.1398376319       14.6605611273       11.0989298466  BUTH      240             0.0000000000
     19352       875  BUTH      DC1            13.1295882740       14.6856982459       11.0887324925  BUTH      240             0.0000000000
     19353       875  BUTH      C2             12.3498435875       15.7375064986       11.8317026195  BUTH      240             0.0000000000
     19354       875  BUTH      DC2            12.3412668303       15.6903475746       11.8748668082  BUTH      240             0.0000000000
     19355       875  BUTH      C3             11.9055525938       16.8823063378       10.8964007151  BUTH      240             0.0000000000
     19356       875  BUTH      DC3            11.9751321451       16.8791874059       10.8756251192  BUTH      240             0.0000000000
     19357       875  BUTH      C4             12.8925936715       17.4501638496       10.1601063875  BUTH      240             0.0000000000
     19358       875  BUTH      DC4            12.9034792920       17.4531888050       10.1626400891  BUTH      240             0.0000000000
     19359       875  BUTH      O1             12.7868713916       17.3540404671        8.9296262087  BUTH      240             0.0000000000
     19360       875  BUTH      DO1            12.8148110625       17.4051555171        8.9522557119  BUTH      240             0.0000000000
     19361       875  BUTH      O2             13.4941195875       18.4457464930       10.5351754760  BUTH      240             0.0000000000
     19362       875  BUTH      DO2            13.5004446373       18.4507754114       10.5515377460  BUTH      240             0.0000000000
     19363       875  BUTH      H1             12.5482867827       14.2521549111       10.2518212613  BUTH      240             0.0000000000
     19364       875  BUTH      H2             14.0820586776       15.0670268129       10.6731057650  BUTH      240             0.0000000000
     19365       875  BUTH      H3             13.4046326702       13.8222403386       11.7782109690  BUTH      240             0.0000000000
     19366       875  BUTH      H4             12.9617844609       16.1534881109       12.6604418235  BUTH      240             0.0000000000
     19367       875  BUTH      H5             11.4440155384       15.2948197312       12.2984198481  BUTH      240             0.0000000000
     19368       875  BUTH      H6             11.4102493358       17.6254104605       11.5573030883  BUTH      240             0.0000000000
     19369       875  BUTH      H7             11.0722839205       16.4687157479       10.2890069861  BUTH      240             0.0000000000
     19370       875  BUTH      H8             13.6547101988       18.7906470522        9.6429007090  BUTH      240             0.0000000000
     19371       875  BUTH      H9             13.4564856954       17.8420003413        8.4271594468  BUTH      240             0.0000000000
     19372       875  BUTH      LPO11          12.4954335883       17.1783075780        8.8478829613  BUTH      240             0.0000000000
     19373       875  BUTH      LPO12          13.0578761528       17.5111955020        8.7735534231  BUTH      240             0.0000000000
     19374       875  BUTH      LPO21          13.2460553762       18.6642477749       10.6501595483  BUTH      240             0.0000000000
     19375       875  BUTH      LPO22          13.8129718543       18.3317061582       10.6236516534  BUTH      240             0.0000000000
     19376       876  BUTH      C1            -17.2041875409      -17.6288359051       10.8532627858  BUTH      241             0.0000000000
     19377       876  BUTH      DC1           -17.2313410243      -17.6269510022       10.8856003702  BUTH      241             0.0000000000
     19378       876  BUTH      C2            -17.0120790608      -17.2026073528       12.3058569197  BUTH      241             0.0000000000
     19379       876  BUTH      DC2           -16.9502679142      -17.1499695411       12.2922232555  BUTH      241             0.0000000000
     19380       876  BUTH      C3            -17.6300003255      -18.2222003754       13.2833705726  BUTH      241             0.0000000000
     19381       876  BUTH      DC3           -17.6767700740      -18.2058329927       13.2421324780  BUTH      241             0.0000000000
     19382       876  BUTH      C4            -18.9074879443      -18.5870592642       12.9953557779  BUTH      241             0.0000000000
     19383       876  BUTH      DC4           -18.9134267050      -18.5759023899       12.9904349486  BUTH      241             0.0000000000
     19384       876  BUTH      O1            -19.0944251417      -19.7156070799       12.5244006942  BUTH      241             0.0000000000
     19385       876  BUTH      DO1           -19.1572730380      -19.6791638130       12.5654397194  BUTH      241             0.0000000000
     19386       876  BUTH      O2            -19.8763059170      -18.1545834469       13.5894957564  BUTH      241             0.0000000000
     19387       876  BUTH      DO2           -19.8793888353      -18.1458760737       13.5939569818  BUTH      241             0.0000000000
     19388       876  BUTH      H1            -16.6998133251      -18.5989789825       10.6564124320  BUTH      241             0.0000000000
     19389       876  BUTH      H2            -18.2799714937      -17.7559923917       10.6066028686  BUTH      241             0.0000000000
     19390       876  BUTH      H3            -16.7893341233      -16.8830781798       10.1418816946  BUTH      241             0.0000000000
     19391       876  BUTH      H4            -17.4884046199      -16.2123427421       12.4695974536  BUTH      241             0.0000000000
     19392       876  BUTH      H5            -15.9291727128      -17.0991626379       12.5315426172  BUTH      241             0.0000000000
     19393       876  BUTH      H6            -17.5212738803      -17.7935254041       14.3025552123  BUTH      241             0.0000000000
     19394       876  BUTH      H7            -16.9234641497      -19.0795794775       13.2887285200  BUTH      241             0.0000000000
     19395       876  BUTH      H8            -20.3983326698      -18.9561201390       13.4284771217  BUTH      241             0.0000000000
     19396       876  BUTH      H9            -20.0248000193      -19.9679944389       12.4260939897  BUTH      241             0.0000000000
     19397       876  BUTH      LPO11         -18.7891702808      -19.8836331954       12.4914356461  BUTH      241             0.0000000000
     19398       876  BUTH      LPO12         -19.4358582920      -19.7659908368       12.4662209646  BUTH      241             0.0000000000
     19399       876  BUTH      LPO21         -19.7980924722      -18.1871937244       13.9290826037  BUTH      241             0.0000000000
     19400       876  BUTH      LPO22         -20.0251646531      -17.9268548023       13.3693123304  BUTH      241             0.0000000000
     19401       877  BUTH      C1             26.8549980475       24.6494614016       22.3299353610  BUTH      242             0.0000000000
     19402       877  BUTH      DC1            26.8449766652       24.6828559299       22.2903265145  BUTH      242             0.0000000000
     19403       877  BUTH      C2             25.8734317205       25.1563883596       21.2843473803  BUTH      242             0.0000000000
     19404       877  BUTH      DC2            25.8326438511       25.0963656019       21.2658203159  BUTH      242             0.0000000000
     19405       877  BUTH      C3             26.4390720048       26.2841054398       20.3956457518  BUTH      242             0.0000000000
     19406       877  BUTH      DC3            26.4586632063       26.2964564945       20.4120891467  BUTH      242             0.0000000000
     19407       877  BUTH      C4             27.1104295953       27.2884538863       21.0247953806  BUTH      242             0.0000000000
     19408       877  BUTH      DC4            27.1028435831       27.2817030065       21.0093784262  BUTH      242             0.0000000000
     19409       877  BUTH      O1             28.3287488854       27.2780921839       20.8015308305  BUTH      242             0.0000000000
     19410       877  BUTH      DO1            28.2899091028       27.3392951306       20.8034129306  BUTH      242             0.0000000000
     19411       877  BUTH      O2             26.6572157088       28.4377209731       21.0663716001  BUTH      242             0.0000000000
     19412       877  BUTH      DO2            26.6479844904       28.4414754073       21.0446841586  BUTH      242             0.0000000000
     19413       877  BUTH      H1             27.7237588025       24.1486759999       21.8516156641  BUTH      242             0.0000000000
     19414       877  BUTH      H2             27.2481483502       25.4732136862       22.9633278248  BUTH      242             0.0000000000
     19415       877  BUTH      H3             26.3678708157       23.9107461977       23.0017447900  BUTH      242             0.0000000000
     19416       877  BUTH      H4             24.9388696447       25.5435846641       21.7436879383  BUTH      242             0.0000000000
     19417       877  BUTH      H5             25.5635785819       24.2730449775       20.6860025777  BUTH      242             0.0000000000
     19418       877  BUTH      H6             25.5638362271       26.6890585699       19.8440151727  BUTH      242             0.0000000000
     19419       877  BUTH      H7             27.0322959424       25.7510676985       19.6221619920  BUTH      242             0.0000000000
     19420       877  BUTH      H8             27.5251660123       28.8582305301       21.1699765385  BUTH      242             0.0000000000
     19421       877  BUTH      H9             28.8071995082       28.0580456230       21.1204644199  BUTH      242             0.0000000000
     19422       877  BUTH      LPO11          28.4092498835       27.0118805437       20.5890432969  BUTH      242             0.0000000000
     19423       877  BUTH      LPO12          28.4837321481       27.5423010504       20.9708644158  BUTH      242             0.0000000000
     19424       877  BUTH      LPO21          26.5804377273       28.5183391668       20.7345495870  BUTH      242             0.0000000000
     19425       877  BUTH      LPO22          26.5245341925       28.4726411715       21.3883594803  BUTH      242             0.0000000000
     19426       878  BUTH      C1             23.5073095942       22.9291316430      -24.7117953505  BUTH      243             0.0000000000
     19427       878  BUTH      DC1            23.5019923986       22.9665945256      -24.7977949182  BUTH      243             0.0000000000
     19428       878  BUTH      C2             22.7920488858       23.9906056229      -25.5333073837  BUTH      243             0.0000000000
     19429       878  BUTH      DC2            22.7421099523       24.0447794226      -25.5048075974  BUTH      243             0.0000000000
     19430       878  BUTH      C3             22.5492451565       23.5259514061      -26.9788686681  BUTH      243             0.0000000000
     19431       878  BUTH      DC3            22.5900194832       23.5133230071      -27.0032502242  BUTH      243             0.0000000000
     19432       878  BUTH      C4             23.6446625561       23.0168176410      -27.6002425586  BUTH      243             0.0000000000
     19433       878  BUTH      DC4            23.6458035961       23.0244153347      -27.6068560640  BUTH      243             0.0000000000
     19434       878  BUTH      O1             23.5143402965       21.8531126078      -28.0028279809  BUTH      243             0.0000000000
     19435       878  BUTH      DO1            23.5481509595       21.9074844224      -28.0528565432  BUTH      243             0.0000000000
     19436       878  BUTH      O2             24.2846356657       23.6913455307      -28.3986537674  BUTH      243             0.0000000000
     19437       878  BUTH      DO2            24.2764163449       23.7040766318      -28.4076540479  BUTH      243             0.0000000000
     19438       878  BUTH      H1             22.9371420817       21.9759013841      -24.6876689953  BUTH      243             0.0000000000
     19439       878  BUTH      H2             24.5206315151       22.7037041521      -25.1076262907  BUTH      243             0.0000000000
     19440       878  BUTH      H3             23.6261346455       23.2500201275      -23.6548033032  BUTH      243             0.0000000000
     19441       878  BUTH      H4             23.4017652916       24.9193423667      -25.5371759238  BUTH      243             0.0000000000
     19442       878  BUTH      H5             21.8132048936       24.2210615627      -25.0609986937  BUTH      243             0.0000000000
     19443       878  BUTH      H6             22.1394746112       24.4127261188      -27.5080564512  BUTH      243             0.0000000000
     19444       878  BUTH      H7             21.6881012171       22.8267798302      -26.9163288961  BUTH      243             0.0000000000
     19445       878  BUTH      H8             24.5464676737       22.9247339846      -28.9321804650  BUTH      243             0.0000000000
     19446       878  BUTH      H9             24.2596699590       21.5212992863      -28.5256516740  BUTH      243             0.0000000000
     19447       878  BUTH      LPO11          23.1942364300       21.7347400844      -27.9252299115  BUTH      243             0.0000000000
     19448       878  BUTH      LPO12          23.8092465591       21.7464845932      -28.1582653085  BUTH      243             0.0000000000
     19449       878  BUTH      LPO21          24.0450916541       23.8420491556      -28.6045835709  BUTH      243             0.0000000000
     19450       878  BUTH      LPO22          24.5840046246       23.7686416933      -28.2346308126  BUTH      243             0.0000000000
     19451       879  BUTH      C1            -21.3061266421      -16.1273667844      -14.7872144635  BUTH      244             0.0000000000
     19452       879  BUTH      DC1           -21.3319532730      -16.2005855063      -14.7881732804  BUTH      244             0.0000000000
     19453       879  BUTH      C2            -20.5476426922      -17.4432196625      -14.7919141548  BUTH      244             0.0000000000
     19454       879  BUTH      DC2           -20.5018839392      -17.4369559176      -14.8232808211  BUTH      244             0.0000000000
     19455       879  BUTH      C3            -21.4932147663      -18.6580268036      -14.7709644396  BUTH      244             0.0000000000
     19456       879  BUTH      DC3           -21.5388238699      -18.6460693478      -14.7408716988  BUTH      244             0.0000000000
     19457       879  BUTH      C4            -22.4111108004      -18.6143473597      -13.7662547775  BUTH      244             0.0000000000
     19458       879  BUTH      DC4           -22.4205168327      -18.6071734549      -13.7647685770  BUTH      244             0.0000000000
     19459       879  BUTH      O1            -23.5913758508      -18.5955288805      -14.1444508279  BUTH      244             0.0000000000
     19460       879  BUTH      DO1           -23.5834092480      -18.6281818114      -14.0987533333  BUTH      244             0.0000000000
     19461       879  BUTH      O2            -22.2519547133      -19.2116270886      -12.7081948387  BUTH      244             0.0000000000
     19462       879  BUTH      DO2           -22.2484965896      -19.2141312975      -12.7092944000  BUTH      244             0.0000000000
     19463       879  BUTH      H1            -21.9744523560      -16.0359959462      -15.6700015897  BUTH      244             0.0000000000
     19464       879  BUTH      H2            -21.9321973050      -16.0102117732      -13.8769226260  BUTH      244             0.0000000000
     19465       879  BUTH      H3            -20.6043033224      -15.2662678261      -14.8037556987  BUTH      244             0.0000000000
     19466       879  BUTH      H4            -19.8951052405      -17.4744841778      -13.8932827486  BUTH      244             0.0000000000
     19467       879  BUTH      H5            -19.8854821046      -17.4982738818      -15.6823260767  BUTH      244             0.0000000000
     19468       879  BUTH      H6            -20.8320152666      -19.5482451286      -14.7027914409  BUTH      244             0.0000000000
     19469       879  BUTH      H7            -21.9138273578      -18.7218916738      -15.7972818013  BUTH      244             0.0000000000
     19470       879  BUTH      H8            -23.1798867914      -19.4735852475      -12.6022704257  BUTH      244             0.0000000000
     19471       879  BUTH      H9            -24.2465587778      -18.6622277897      -13.4336431269  BUTH      244             0.0000000000
     19472       879  BUTH      LPO11         -23.6051737872      -18.6030287569      -14.4940983201  BUTH      244             0.0000000000
     19473       879  BUTH      LPO12         -23.8055467230      -18.5843942050      -13.8678520996  BUTH      244             0.0000000000
     19474       879  BUTH      LPO21         -22.1047400463      -19.5164560287      -12.7971170469  BUTH      244             0.0000000000
     19475       879  BUTH      LPO22         -22.2237297006      -18.9609140065      -12.4656122773  BUTH      244             0.0000000000
     19476       880  BUTH      C1             26.0043124672      -17.6382449547        4.7382227132  BUTH      245             0.0000000000
     19477       880  BUTH      DC1            26.0142489565      -17.6030721231        4.7342970198  BUTH      245             0.0000000000
     19478       880  BUTH      C2             27.2793281729      -17.1465841729        5.4125947288  BUTH      245             0.0000000000
     19479       880  BUTH      DC2            27.2928484323      -17.2142330460        5.4306438076  BUTH      245             0.0000000000
     19480       880  BUTH      C3             27.1421557680      -15.7074364537        5.9501946744  BUTH      245             0.0000000000
     19481       880  BUTH      DC3            27.1096696531      -15.6938912633        5.9046288113  BUTH      245             0.0000000000
     19482       880  BUTH      C4             26.6638304794      -14.7912910085        5.0628010105  BUTH      245             0.0000000000
     19483       880  BUTH      DC4            26.6553900899      -14.7901513764        5.0645846374  BUTH      245             0.0000000000
     19484       880  BUTH      O1             25.4547706129      -14.5301808233        5.1583252004  BUTH      245             0.0000000000
     19485       880  BUTH      DO1            25.4846231340      -14.4886104284        5.1389831418  BUTH      245             0.0000000000
     19486       880  BUTH      O2             27.3536369562      -13.8730494110        4.6135771506  BUTH      245             0.0000000000
     19487       880  BUTH      DO2            27.3535047932      -13.8729319184        4.6265833660  BUTH      245             0.0000000000
     19488       880  BUTH      H1             25.1492673652      -17.6221407305        5.4474191098  BUTH      245             0.0000000000
     19489       880  BUTH      H2             25.7229137765      -16.9941589305        3.8778222420  BUTH      245             0.0000000000
     19490       880  BUTH      H3             26.1202499858      -18.6793202699        4.3680313032  BUTH      245             0.0000000000
     19491       880  BUTH      H4             28.1220380305      -17.1764612358        4.6892217559  BUTH      245             0.0000000000
     19492       880  BUTH      H5             27.5491210267      -17.8174281019        6.2561000572  BUTH      245             0.0000000000
     19493       880  BUTH      H6             28.1476023379      -15.4327732033        6.3348481480  BUTH      245             0.0000000000
     19494       880  BUTH      H7             26.5229234334      -15.8102763936        6.8668714236  BUTH      245             0.0000000000
     19495       880  BUTH      H8             26.6275986182      -13.3098835758        4.3027515184  BUTH      245             0.0000000000
     19496       880  BUTH      H9             25.1607716655      -13.7691198412        4.6355328894  BUTH      245             0.0000000000
     19497       880  BUTH      LPO11          25.3120374012      -14.7171501035        5.4174964152  BUTH      245             0.0000000000
     19498       880  BUTH      LPO12          25.3641795110      -14.2928225125        4.9175882391  BUTH      245             0.0000000000
     19499       880  BUTH      LPO21          27.4602379665      -13.6941560704        4.8948837401  BUTH      245             0.0000000000
     19500       880  BUTH      LPO22          27.4782218549      -13.9939642839        4.3096722370  BUTH      245             0.0000000000
     19501       881  BUTH      C1            -25.5917127624       -2.6611442365      -14.1378254906  BUTH      246             0.0000000000
     19502       881  BUTH      DC1           -25.5730671950       -2.6578282225      -14.1292524519  BUTH      246             0.0000000000
     19503       881  BUTH      C2            -25.0885288211       -2.4546259045      -12.7255682899  BUTH      246             0.0000000000
     19504       881  BUTH      DC2           -25.1266169433       -2.5489881260      -12.7176564279  BUTH      246             0.0000000000
     19505       881  BUTH      C3            -24.9649355654       -0.9480271858      -12.4236529073  BUTH      246             0.0000000000
     19506       881  BUTH      DC3           -24.9723114770       -0.9819380334      -12.4567884797  BUTH      246             0.0000000000
     19507       881  BUTH      C4            -24.1550436872       -0.1383680522      -13.1569167836  BUTH      246             0.0000000000
     19508       881  BUTH      DC4           -24.1787945777       -0.1695024513      -13.1464971736  BUTH      246             0.0000000000
     19509       881  BUTH      O1            -24.7700172543        0.7631904858      -13.7374732542  BUTH      246             0.0000000000
     19510       881  BUTH      DO1           -24.7267319975        0.7470250105      -13.7155188936  BUTH      246             0.0000000000
     19511       881  BUTH      O2            -22.9631389765        0.0714249434      -12.8226272417  BUTH      246             0.0000000000
     19512       881  BUTH      DO2           -22.9896287918        0.0517665499      -12.8141964442  BUTH      246             0.0000000000
     19513       881  BUTH      H1            -26.6015980654       -2.2174299411      -14.2703785013  BUTH      246             0.0000000000
     19514       881  BUTH      H2            -24.9229459464       -2.1129707807      -14.8353767854  BUTH      246             0.0000000000
     19515       881  BUTH      H3            -25.6292105497       -3.7322465439      -14.4304938405  BUTH      246             0.0000000000
     19516       881  BUTH      H4            -24.0897393903       -2.9216212187      -12.5889811395  BUTH      246             0.0000000000
     19517       881  BUTH      H5            -25.7810873507       -2.9226030869      -11.9936659464  BUTH      246             0.0000000000
     19518       881  BUTH      H6            -24.5114191270       -0.9368263101      -11.4094939539  BUTH      246             0.0000000000
     19519       881  BUTH      H7            -26.0003413362       -0.5787748921      -12.2626913172  BUTH      246             0.0000000000
     19520       881  BUTH      H8            -22.8044160295        0.9459898983      -13.2110125756  BUTH      246             0.0000000000
     19521       881  BUTH      H9            -24.2062222851        1.4336573093      -14.1516839168  BUTH      246             0.0000000000
     19522       881  BUTH      LPO11         -25.1119688014        0.7396779967      -13.6666473953  BUTH      246             0.0000000000
     19523       881  BUTH      LPO12         -24.5471728880        0.9613155136      -13.9207404411  BUTH      246             0.0000000000
     19524       881  BUTH      LPO21         -22.9793931903        0.1577912893      -12.4838402071  BUTH      246             0.0000000000
     19525       881  BUTH      LPO22         -22.7733435956       -0.1266016212      -13.0400282378  BUTH      246             0.0000000000
     19526       882  BUTH      C1             25.1880541122      -23.7231813739      -17.3687482555  BUTH      247             0.0000000000
     19527       882  BUTH      DC1            25.2076595659      -23.6984714863      -17.3876989772  BUTH      247             0.0000000000
     19528       882  BUTH      C2             25.2983171846      -24.8554125945      -18.3800969294  BUTH      247             0.0000000000
     19529       882  BUTH      DC2            25.2624911952      -24.8901026658      -18.3258437588  BUTH      247             0.0000000000
     19530       882  BUTH      C3             26.4479195882      -24.6402265183      -19.3854920530  BUTH      247             0.0000000000
     19531       882  BUTH      DC3            26.4286045830      -24.6040977509      -19.3679953889  BUTH      247             0.0000000000
     19532       882  BUTH      C4             26.5342408619      -23.3821893769      -19.8886030088  BUTH      247             0.0000000000
     19533       882  BUTH      DC4            26.5407319519      -23.3956275850      -19.8704474985  BUTH      247             0.0000000000
     19534       882  BUTH      O1             27.4932641931      -22.7119541731      -19.4648267396  BUTH      247             0.0000000000
     19535       882  BUTH      DO1            27.4773608933      -22.7101271320      -19.4927515180  BUTH      247             0.0000000000
     19536       882  BUTH      O2             25.9615486345      -23.0714599893      -20.9504113770  BUTH      247             0.0000000000
     19537       882  BUTH      DO2            25.9716392847      -23.0967546708      -20.9313497609  BUTH      247             0.0000000000
     19538       882  BUTH      H1             26.1629611241      -23.5430554347      -16.8673183338  BUTH      247             0.0000000000
     19539       882  BUTH      H2             24.9207123439      -22.7721888994      -17.8771405190  BUTH      247             0.0000000000
     19540       882  BUTH      H3             24.4244716317      -23.9416011446      -16.5918598471  BUTH      247             0.0000000000
     19541       882  BUTH      H4             24.3437565588      -24.9233540801      -18.9444717758  BUTH      247             0.0000000000
     19542       882  BUTH      H5             25.4451801071      -25.8257373851      -17.8593070651  BUTH      247             0.0000000000
     19543       882  BUTH      H6             26.2942194234      -25.3945212383      -20.1865767771  BUTH      247             0.0000000000
     19544       882  BUTH      H7             27.3753417824      -24.9833836282      -18.8790808846  BUTH      247             0.0000000000
     19545       882  BUTH      H8             26.3447020413      -22.2040271771      -21.1545039617  BUTH      247             0.0000000000
     19546       882  BUTH      H9             27.6030816007      -21.8498123632      -19.8933271908  BUTH      247             0.0000000000
     19547       882  BUTH      LPO11          27.6803990690      -22.9011899945      -19.2375156265  BUTH      247             0.0000000000
     19548       882  BUTH      LPO12          27.4906391280      -22.3937694859      -19.6106060725  BUTH      247             0.0000000000
     19549       882  BUTH      LPO21          26.1191314005      -23.2652177434      -21.1956166064  BUTH      247             0.0000000000
     19550       882  BUTH      LPO22          25.6404747685      -22.9729226891      -20.8519127829  BUTH      247             0.0000000000
     19551       883  BUTH      C1              9.4567715630      -22.7324862496      -28.1601129171  BUTH      248             0.0000000000
     19552       883  BUTH      DC1             9.4708349570      -22.7234065355      -28.1157864146  BUTH      248             0.0000000000
     19553       883  BUTH      C2             10.3693526624      -23.3728556343      -27.1234414428  BUTH      248             0.0000000000
     19554       883  BUTH      DC2            10.3802685637      -23.4518297836      -27.1601889610  BUTH      248             0.0000000000
     19555       883  BUTH      C3             10.1634148105      -22.7197798881      -25.7448974849  BUTH      248             0.0000000000
     19556       883  BUTH      DC3            10.1592588989      -22.6843840671      -25.7861780323  BUTH      248             0.0000000000
     19557       883  BUTH      C4             10.2484127367      -21.3610919337      -25.7652843990  BUTH      248             0.0000000000
     19558       883  BUTH      DC4            10.2566285025      -21.3664512246      -25.7743276110  BUTH      248             0.0000000000
     19559       883  BUTH      O1              9.2114029620      -20.7128567143      -25.5959143900  BUTH      248             0.0000000000
     19560       883  BUTH      DO1             9.2990502906      -20.6716874598      -25.5788860164  BUTH      248             0.0000000000
     19561       883  BUTH      O2             11.2244764649      -20.7271451233      -25.4521454941  BUTH      248             0.0000000000
     19562       883  BUTH      DO2            11.2287432176      -20.7203357366      -25.4505691723  BUTH      248             0.0000000000
     19563       883  BUTH      H1              8.4030719926      -22.6997906976      -27.8094432480  BUTH      248             0.0000000000
     19564       883  BUTH      H2              9.7706761177      -21.6915230593      -28.3885435784  BUTH      248             0.0000000000
     19565       883  BUTH      H3              9.4441932280      -23.3011226078      -29.1144794501  BUTH      248             0.0000000000
     19566       883  BUTH      H4             11.4287999892      -23.2440698720      -27.4321590979  BUTH      248             0.0000000000
     19567       883  BUTH      H5             10.1700295636      -24.4634405527      -27.0512206830  BUTH      248             0.0000000000
     19568       883  BUTH      H6             10.9121772549      -23.1875605527      -25.0704665737  BUTH      248             0.0000000000
     19569       883  BUTH      H7              9.1877741756      -23.0989972336      -25.3725528107  BUTH      248             0.0000000000
     19570       883  BUTH      H8             10.6786126254      -19.9605515858      -25.2170561132  BUTH      248             0.0000000000
     19571       883  BUTH      H9              9.3375095289      -19.7550874552      -25.5201768150  BUTH      248             0.0000000000
     19572       883  BUTH      LPO11           8.9407149545      -20.9299118655      -25.5499245662  BUTH      248             0.0000000000
     19573       883  BUTH      LPO12           9.2809967551      -20.3700974901      -25.6090604259  BUTH      248             0.0000000000
     19574       883  BUTH      LPO21          11.3179646054      -20.8501942365      -25.1381090579  BUTH      248             0.0000000000
     19575       883  BUTH      LPO22          11.3691875702      -20.6248567552      -25.7539662783  BUTH      248             0.0000000000
     19576       884  BUTH      C1             11.8206648682       -8.3908916307       12.3483452964  BUTH      249             0.0000000000
     19577       884  BUTH      DC1            11.8213346733       -8.4260046759       12.2998949504  BUTH      249             0.0000000000
     19578       884  BUTH      C2             11.2297402138       -9.7240609803       11.9153403514  BUTH      249             0.0000000000
     19579       884  BUTH      DC2            11.1960100891       -9.7544470424       11.9848626650  BUTH      249             0.0000000000
     19580       884  BUTH      C3             11.9870984632      -10.3665117406       10.7428424382  BUTH      249             0.0000000000
     19581       884  BUTH      DC3            11.9838978607      -10.3227358869       10.7327692003  BUTH      249             0.0000000000
     19582       884  BUTH      C4             12.1661890703       -9.5351646910        9.6842604063  BUTH      249             0.0000000000
     19583       884  BUTH      DC4            12.1622326959       -9.5368237511        9.6923022962  BUTH      249             0.0000000000
     19584       884  BUTH      O1             13.3356205650       -9.2325351103        9.4177996622  BUTH      249             0.0000000000
     19585       884  BUTH      DO1            13.2896036443       -9.2293277395        9.3720033773  BUTH      249             0.0000000000
     19586       884  BUTH      O2             11.4072012733       -9.5047040937        8.7292925914  BUTH      249             0.0000000000
     19587       884  BUTH      DO2            11.4098063725       -9.5193018541        8.7294821009  BUTH      249             0.0000000000
     19588       884  BUTH      H1             12.8843679193       -8.5075451435       12.6470906380  BUTH      249             0.0000000000
     19589       884  BUTH      H2             11.7772769568       -7.6379402353       11.5325618162  BUTH      249             0.0000000000
     19590       884  BUTH      H3             11.2718811597       -7.9717955306       13.2186991900  BUTH      249             0.0000000000
     19591       884  BUTH      H4             10.1659600818       -9.5761206250       11.6310755400  BUTH      249             0.0000000000
     19592       884  BUTH      H5             11.2730711282      -10.4319531695       12.7705199117  BUTH      249             0.0000000000
     19593       884  BUTH      H6             11.4043944605      -11.2710480376       10.4660914084  BUTH      249             0.0000000000
     19594       884  BUTH      H7             12.9274532965      -10.7713999798       11.1742579035  BUTH      249             0.0000000000
     19595       884  BUTH      H8             12.0381904667       -9.0793280487        8.1277879297  BUTH      249             0.0000000000
     19596       884  BUTH      H9             13.4467561736       -8.7099839919        8.6093751418  BUTH      249             0.0000000000
     19597       884  BUTH      LPO11          13.5538031347       -9.3880863748        9.6429666456  BUTH      249             0.0000000000
     19598       884  BUTH      LPO12          13.3437755681       -9.0184114155        9.1410605445  BUTH      249             0.0000000000
     19599       884  BUTH      LPO21          11.4035900063       -9.8320210515        8.6053951826  BUTH      249             0.0000000000
     19600       884  BUTH      LPO22          11.1871086927       -9.2409450982        8.7963033986  BUTH      249             0.0000000000
     19601       885  BUTH      C1             10.4678604396       -0.7137540567       24.5689894826  BUTH      250             0.0000000000
     19602       885  BUTH      DC1            10.4766065244       -0.7182025360       24.6088369908  BUTH      250             0.0000000000
     19603       885  BUTH      C2             10.8707420782       -0.6268296292       26.0374801761  BUTH      250             0.0000000000
     19604       885  BUTH      DC2            10.8474977273       -0.5225983718       26.0497414023  BUTH      250             0.0000000000
     19605       885  BUTH      C3             11.7288444120       -1.8104809335       26.5128989420  BUTH      250             0.0000000000
     19606       885  BUTH      DC3            11.6980262190       -1.7905536290       26.5017745860  BUTH      250             0.0000000000
     19607       885  BUTH      C4             11.1802780642       -3.0469057609       26.3864474224  BUTH      250             0.0000000000
     19608       885  BUTH      DC4            11.1840361738       -2.9973034761       26.3876649788  BUTH      250             0.0000000000
     19609       885  BUTH      O1             11.7036917917       -3.7322593760       25.5041855914  BUTH      250             0.0000000000
     19610       885  BUTH      DO1            11.6783705949       -3.7238246957       25.5513411561  BUTH      250             0.0000000000
     19611       885  BUTH      O2             10.6378934761       -3.6186130024       27.3457672524  BUTH      250             0.0000000000
     19612       885  BUTH      DO2            10.6446317830       -3.5768624325       27.3473959798  BUTH      250             0.0000000000
     19613       885  BUTH      H1             11.3540056869       -0.8515483463       23.9131843773  BUTH      250             0.0000000000
     19614       885  BUTH      H2              9.7921802139       -1.5784405843       24.3955119852  BUTH      250             0.0000000000
     19615       885  BUTH      H3              9.9244608510        0.1915336492       24.2233132519  BUTH      250             0.0000000000
     19616       885  BUTH      H4              9.9575546369       -0.6338274322       26.6702208254  BUTH      250             0.0000000000
     19617       885  BUTH      H5             11.4242931303        0.3197171790       26.2162296448  BUTH      250             0.0000000000
     19618       885  BUTH      H6             12.0047381076       -1.5896773891       27.5662030122  BUTH      250             0.0000000000
     19619       885  BUTH      H7             12.6832364251       -1.7096662953       25.9531728536  BUTH      250             0.0000000000
     19620       885  BUTH      H8             10.7471282655       -4.5404937471       27.0645135353  BUTH      250             0.0000000000
     19621       885  BUTH      H9             11.3799218614       -4.6443190351       25.4564235724  BUTH      250             0.0000000000
     19622       885  BUTH      LPO11          11.9604849983       -3.5519742547       25.3490903816  BUTH      250             0.0000000000
     19623       885  BUTH      LPO12          11.5484718264       -4.0455436611       25.4880697895  BUTH      250             0.0000000000
     19624       885  BUTH      LPO21          10.8732722092       -3.6028141641       27.6043156012  BUTH      250             0.0000000000
     19625       885  BUTH      LPO22          10.2945056471       -3.5763688716       27.2928500306  BUTH      250             0.0000000000
     19626       886  BUTH      C1             14.3319220063        4.9369440617       -9.5019137968  BUTH      251             0.0000000000
     19627       886  BUTH      DC1            14.3382860788        4.8927477429       -9.5242688531  BUTH      251             0.0000000000
     19628       886  BUTH      C2             15.2645946207        6.0385961312       -9.9971051575  BUTH      251             0.0000000000
     19629       886  BUTH      DC2            15.1962386617        6.0465198489      -10.0079783388  BUTH      251             0.0000000000
     19630       886  BUTH      C3             16.5547050055        5.4938635250      -10.6565782337  BUTH      251             0.0000000000
     19631       886  BUTH      DC3            16.5493465884        5.4404134953      -10.6177416591  BUTH      251             0.0000000000
     19632       886  BUTH      C4             17.2353476983        4.5685506859       -9.9206435026  BUTH      251             0.0000000000
     19633       886  BUTH      DC4            17.2278091784        4.5475449257       -9.9328018182  BUTH      251             0.0000000000
     19634       886  BUTH      O1             17.1734105656        3.3959107048      -10.3359020733  BUTH      251             0.0000000000
     19635       886  BUTH      DO1            17.2057324860        3.3893600915      -10.3211711415  BUTH      251             0.0000000000
     19636       886  BUTH      O2             18.2004564313        4.8512516039       -9.2017201640  BUTH      251             0.0000000000
     19637       886  BUTH      DO2            18.1941018397        4.8468011848       -9.2215414415  BUTH      251             0.0000000000
     19638       886  BUTH      H1             14.0390395819        4.2617795624      -10.3341960724  BUTH      251             0.0000000000
     19639       886  BUTH      H2             14.8318160249        4.3292362280       -8.7176191071  BUTH      251             0.0000000000
     19640       886  BUTH      H3             13.4145807128        5.3726660883       -9.0514115586  BUTH      251             0.0000000000
     19641       886  BUTH      H4             15.5510809258        6.6761309983       -9.1335104087  BUTH      251             0.0000000000
     19642       886  BUTH      H5             14.7433666092        6.7023166240      -10.7196821212  BUTH      251             0.0000000000
     19643       886  BUTH      H6             17.1738482175        6.3911375332      -10.8707791608  BUTH      251             0.0000000000
     19644       886  BUTH      H7             16.2502273342        5.1554264864      -11.6700251829  BUTH      251             0.0000000000
     19645       886  BUTH      H8             18.5718811385        3.9681888267       -9.0495892390  BUTH      251             0.0000000000
     19646       886  BUTH      H9             17.7660167077        2.7791480107       -9.8805091227  BUTH      251             0.0000000000
     19647       886  BUTH      LPO11          16.9774482195        3.3816838118      -10.6255507474  BUTH      251             0.0000000000
     19648       886  BUTH      LPO12          17.3574674986        3.1847354400      -10.1260734457  BUTH      251             0.0000000000
     19649       886  BUTH      LPO21          18.4393824167        4.9826598589       -9.4211426879  BUTH      251             0.0000000000
     19650       886  BUTH      LPO22          18.0612238388        4.9156022595       -8.8871199760  BUTH      251             0.0000000000
     19651       887  BUTH      C1            -15.4152520724      -26.8353680260       20.0475112161  BUTH      252             0.0000000000
     19652       887  BUTH      DC1           -15.4146741360      -26.8045046344       20.1197269734  BUTH      252             0.0000000000
     19653       887  BUTH      C2            -14.5910321563      -26.0013721586       21.0118577945  BUTH      252             0.0000000000
     19654       887  BUTH      DC2           -14.5602647247      -25.9412867955       20.9785880587  BUTH      252             0.0000000000
     19655       887  BUTH      C3            -14.2990763285      -26.7845960649       22.3036466300  BUTH      252             0.0000000000
     19656       887  BUTH      DC3           -14.3486679275      -26.7887100567       22.3160611517  BUTH      252             0.0000000000
     19657       887  BUTH      C4            -15.4147013705      -27.3676195227       22.8213636271  BUTH      252             0.0000000000
     19658       887  BUTH      DC4           -15.4238901549      -27.3402263162       22.8291610682  BUTH      252             0.0000000000
     19659       887  BUTH      O1            -15.2789873804      -28.5275722539       23.2132626484  BUTH      252             0.0000000000
     19660       887  BUTH      DO1           -15.3384334494      -28.4441653198       23.2898818145  BUTH      252             0.0000000000
     19661       887  BUTH      O2            -16.1039137122      -26.7956521919       23.6295779342  BUTH      252             0.0000000000
     19662       887  BUTH      DO2           -16.1129615874      -26.7698778661       23.6429239346  BUTH      252             0.0000000000
     19663       887  BUTH      H1            -14.8942334056      -27.7879198710       19.8119150935  BUTH      252             0.0000000000
     19664       887  BUTH      H2            -16.4096444122      -27.1093909406       20.4603263293  BUTH      252             0.0000000000
     19665       887  BUTH      H3            -15.5822842856      -26.2900373016       19.0940776103  BUTH      252             0.0000000000
     19666       887  BUTH      H4            -15.1324286662      -25.0592950262       21.2435936278  BUTH      252             0.0000000000
     19667       887  BUTH      H5            -13.6298398110      -25.7202341364       20.5308258957  BUTH      252             0.0000000000
     19668       887  BUTH      H6            -13.8215427970      -26.0562064097       22.9933793587  BUTH      252             0.0000000000
     19669       887  BUTH      H7            -13.4865061779      -27.4988820340       22.0509683668  BUTH      252             0.0000000000
     19670       887  BUTH      H8            -16.2182931874      -27.6307371987       24.1096303970  BUTH      252             0.0000000000
     19671       887  BUTH      H9            -16.0800394716      -28.9143496003       23.5975539851  BUTH      252             0.0000000000
     19672       887  BUTH      LPO11         -14.9491052044      -28.6331220553       23.1628941126  BUTH      252             0.0000000000
     19673       887  BUTH      LPO12         -15.5824934352      -28.6474601816       23.3397970685  BUTH      252             0.0000000000
     19674       887  BUTH      LPO21         -15.8812903215      -26.6203208853       23.8349988651  BUTH      252             0.0000000000
     19675       887  BUTH      LPO22         -16.4150426345      -26.7543432847       23.4746832348  BUTH      252             0.0000000000
     19676       888  BUTH      C1             22.0457544225      -16.3360502007        4.8033396597  BUTH      253             0.0000000000
     19677       888  BUTH      DC1            22.0445312304      -16.3385387460        4.8388697050  BUTH      253             0.0000000000
     19678       888  BUTH      C2             21.7115138897      -15.4709408593        6.0085654325  BUTH      253             0.0000000000
     19679       888  BUTH      DC2            21.6576982370      -15.4226486943        5.9702323328  BUTH      253             0.0000000000
     19680       888  BUTH      C3             22.7437297789      -15.6903816683        7.1298098511  BUTH      253             0.0000000000
     19681       888  BUTH      DC3            22.7074208789      -15.7307443837        7.1294447478  BUTH      253             0.0000000000
     19682       888  BUTH      C4             22.8581049210      -16.9817194830        7.5334591381  BUTH      253             0.0000000000
     19683       888  BUTH      DC4            22.8437863436      -16.9674987391        7.5358556088  BUTH      253             0.0000000000
     19684       888  BUTH      O1             24.0089519077      -17.3345067975        7.8079267530  BUTH      253             0.0000000000
     19685       888  BUTH      DO1            23.9458567312      -17.3560741896        7.8462189384  BUTH      253             0.0000000000
     19686       888  BUTH      O2             22.0146525391      -17.5095539152        8.2547939187  BUTH      253             0.0000000000
     19687       888  BUTH      DO2            22.0004672592      -17.5033553629        8.2605263417  BUTH      253             0.0000000000
     19688       888  BUTH      H1             23.0808322435      -16.1309060230        4.4557036842  BUTH      253             0.0000000000
     19689       888  BUTH      H2             21.9918600687      -17.4173949063        5.0525584914  BUTH      253             0.0000000000
     19690       888  BUTH      H3             21.3482094408      -16.1403195787        3.9610561424  BUTH      253             0.0000000000
     19691       888  BUTH      H4             20.6922492542      -15.7171785521        6.3756997445  BUTH      253             0.0000000000
     19692       888  BUTH      H5             21.7119483233      -14.4011207465        5.7088893783  BUTH      253             0.0000000000
     19693       888  BUTH      H6             22.4526019229      -15.0215278125        7.9677836532  BUTH      253             0.0000000000
     19694       888  BUTH      H7             23.6922992359      -15.2357992021        6.7721902671  BUTH      253             0.0000000000
     19695       888  BUTH      H8             22.6582456959      -18.1011749828        8.6751180328  BUTH      253             0.0000000000
     19696       888  BUTH      H9             24.0841544520      -18.2571765414        8.0942589394  BUTH      253             0.0000000000
     19697       888  BUTH      LPO11          24.2304700728      -17.0677131684        7.7604835023  BUTH      253             0.0000000000
     19698       888  BUTH      LPO12          24.0106062081      -17.6697130093        7.9085948155  BUTH      253             0.0000000000
     19699       888  BUTH      LPO21          21.9540634774      -17.2782106232        8.5103506577  BUTH      253             0.0000000000
     19700       888  BUTH      LPO22          21.8407937967      -17.7308405975        8.0466945628  BUTH      253             0.0000000000
     19701       889  BUTH      C1              4.3614975282        3.5092955973       -3.1946569983  BUTH      254             0.0000000000
     19702       889  BUTH      DC1             4.3768404635        3.4725773757       -3.2147496523  BUTH      254             0.0000000000
     19703       889  BUTH      C2              3.3220927050        3.7114565446       -2.0969351034  BUTH      254             0.0000000000
     19704       889  BUTH      DC2             3.4062006905        3.7344615887       -2.0886742452  BUTH      254             0.0000000000
     19705       889  BUTH      C3              2.5918902972        2.4112772664       -1.6788310124  BUTH      254             0.0000000000
     19706       889  BUTH      DC3             2.6255967921        2.3572560879       -1.7317731783  BUTH      254             0.0000000000
     19707       889  BUTH      C4              2.1172725702        1.6585240195       -2.7097305748  BUTH      254             0.0000000000
     19708       889  BUTH      DC4             2.1369928385        1.6374568844       -2.7356972811  BUTH      254             0.0000000000
     19709       889  BUTH      O1              2.7358554869        0.5979691008       -2.9137077423  BUTH      254             0.0000000000
     19710       889  BUTH      DO1             2.6782265012        0.5776355717       -2.9322665418  BUTH      254             0.0000000000
     19711       889  BUTH      O2              0.9451980186        1.5983078634       -3.0644234526  BUTH      254             0.0000000000
     19712       889  BUTH      DO2             0.9584957901        1.5683754785       -3.0867084751  BUTH      254             0.0000000000
     19713       889  BUTH      H1              5.1494794318        2.7917605653       -2.8807318506  BUTH      254             0.0000000000
     19714       889  BUTH      H2              3.8762166028        3.1165753920       -4.1136750958  BUTH      254             0.0000000000
     19715       889  BUTH      H3              4.8354642190        4.4781498741       -3.4611114340  BUTH      254             0.0000000000
     19716       889  BUTH      H4              2.5566300748        4.4268752645       -2.4664807941  BUTH      254             0.0000000000
     19717       889  BUTH      H5              3.7756995266        4.1807391519       -1.1978601979  BUTH      254             0.0000000000
     19718       889  BUTH      H6              1.7850328600        2.7340917982       -0.9866656752  BUTH      254             0.0000000000
     19719       889  BUTH      H7              3.3079546064        1.8835135801       -1.0132197168  BUTH      254             0.0000000000
     19720       889  BUTH      H8              0.9250000573        0.6416462730       -3.2234537764  BUTH      254             0.0000000000
     19721       889  BUTH      H9              2.3311517882        0.0174152968       -3.5756240501  BUTH      254             0.0000000000
     19722       889  BUTH      LPO11           2.9978291609        0.5660720854       -2.6838112992  BUTH      254             0.0000000000
     19723       889  BUTH      LPO12           2.5928738716        0.4258552881       -3.1828417111  BUTH      254             0.0000000000
     19724       889  BUTH      LPO21           0.7597574781        1.6212746025       -2.7684769459  BUTH      254             0.0000000000
     19725       889  BUTH      LPO22           0.9433746255        1.7210788705       -3.3921793908  BUTH      254             0.0000000000
     19726       890  BUTH      C1             17.2268877003        8.2002491539      -20.4285297594  BUTH      255             0.0000000000
     19727       890  BUTH      DC1            17.2384846792        8.2307012576      -20.4318261004  BUTH      255             0.0000000000
     19728       890  BUTH      C2             16.1088600284        8.9985366265      -19.7761060583  BUTH      255             0.0000000000
     19729       890  BUTH      DC2            16.0707593520        8.9383511844      -19.7656089499  BUTH      255             0.0000000000
     19730       890  BUTH      C3             15.8898415649       10.3287160262      -20.5214990851  BUTH      255             0.0000000000
     19731       890  BUTH      DC3            15.9196519024       10.3218665089      -20.5268739161  BUTH      255             0.0000000000
     19732       890  BUTH      C4             17.0015475763       11.1031505271      -20.6837033642  BUTH      255             0.0000000000
     19733       890  BUTH      DC4            16.9935728869       11.0879959756      -20.6747834593  BUTH      255             0.0000000000
     19734       890  BUTH      O1             17.4576584890       11.1158920530      -21.8334828649  BUTH      255             0.0000000000
     19735       890  BUTH      DO1            17.4629655321       11.1590184598      -21.7852424529  BUTH      255             0.0000000000
     19736       890  BUTH      O2             17.2104088209       12.1345894128      -20.0327352414  BUTH      255             0.0000000000
     19737       890  BUTH      DO2            17.2008285704       12.1288086959      -20.0270184254  BUTH      255             0.0000000000
     19738       890  BUTH      H1             16.9591393055        7.9306451935      -21.4725343102  BUTH      255             0.0000000000
     19739       890  BUTH      H2             18.1550051365        8.8046718658      -20.5156630515  BUTH      255             0.0000000000
     19740       890  BUTH      H3             17.4532587129        7.2769930074      -19.8534860632  BUTH      255             0.0000000000
     19741       890  BUTH      H4             16.3642422160        9.2115270384      -18.7160418986  BUTH      255             0.0000000000
     19742       890  BUTH      H5             15.1744997275        8.3977295269      -19.7581433840  BUTH      255             0.0000000000
     19743       890  BUTH      H6             15.0875208000       10.8738333030      -19.9797892496  BUTH      255             0.0000000000
     19744       890  BUTH      H7             15.4058107783       10.0324059314      -21.4766093014  BUTH      255             0.0000000000
     19745       890  BUTH      H8             17.7599940595       12.5737530541      -20.7005610882  BUTH      255             0.0000000000
     19746       890  BUTH      H9             18.1535421010       11.7730576128      -21.9846133565  BUTH      255             0.0000000000
     19747       890  BUTH      LPO11          17.2626222077       10.9133360658      -22.0418861303  BUTH      255             0.0000000000
     19748       890  BUTH      LPO12          17.7409716890       11.3209140690      -21.8476109810  BUTH      255             0.0000000000
     19749       890  BUTH      LPO21          16.9142188648       12.3194161883      -20.0574450159  BUTH      255             0.0000000000
     19750       890  BUTH      LPO22          17.4516776031       12.0452312638      -19.7954495571  BUTH      255             0.0000000000
     19751       891  BUTH      C1            -26.3581121064       -2.6322701331        7.6968078285  BUTH      256             0.0000000000
     19752       891  BUTH      DC1           -26.2960340094       -2.6695949669        7.7227289229  BUTH      256             0.0000000000
     19753       891  BUTH      C2            -25.6052081062       -3.9114072528        8.0422738111  BUTH      256             0.0000000000
     19754       891  BUTH      DC2           -25.6493096638       -3.9970034196        8.0213598747  BUTH      256             0.0000000000
     19755       891  BUTH      C3            -24.6670479971       -3.7162120988        9.2501569968  BUTH      256             0.0000000000
     19756       891  BUTH      DC3           -24.6690435949       -3.7227815828        9.2419098395  BUTH      256             0.0000000000
     19757       891  BUTH      C4            -23.8253799010       -2.6427032095        9.2120464469  BUTH      256             0.0000000000
     19758       891  BUTH      DC4           -23.8448428910       -2.6754814324        9.1973988444  BUTH      256             0.0000000000
     19759       891  BUTH      O1            -23.9020398454       -1.9521090478       10.2293778185  BUTH      256             0.0000000000
     19760       891  BUTH      DO1           -23.8439018435       -1.9898249676       10.1889634762  BUTH      256             0.0000000000
     19761       891  BUTH      O2            -22.6644289444       -2.7805030389        8.8037629736  BUTH      256             0.0000000000
     19762       891  BUTH      DO2           -22.6778463079       -2.8053964143        8.7966384327  BUTH      256             0.0000000000
     19763       891  BUTH      H1            -26.9778365688       -2.2825542503        8.5500143641  BUTH      256             0.0000000000
     19764       891  BUTH      H2            -25.6646621574       -1.8046030640        7.4352444689  BUTH      256             0.0000000000
     19765       891  BUTH      H3            -27.0387100784       -2.7810827816        6.8313818073  BUTH      256             0.0000000000
     19766       891  BUTH      H4            -24.9926441915       -4.2199421783        7.1682642851  BUTH      256             0.0000000000
     19767       891  BUTH      H5            -26.3378128036       -4.7205332223        8.2494609842  BUTH      256             0.0000000000
     19768       891  BUTH      H6            -24.0712406784       -4.6522347776        9.3066918028  BUTH      256             0.0000000000
     19769       891  BUTH      H7            -25.3375706848       -3.7447327202       10.1355421669  BUTH      256             0.0000000000
     19770       891  BUTH      H8            -22.2482934669       -2.1576801711        9.4200607424  BUTH      256             0.0000000000
     19771       891  BUTH      H9            -23.2884374335       -1.2025260208       10.2534270574  BUTH      256             0.0000000000
     19772       891  BUTH      LPO11         -24.1371369688       -2.0890240615       10.4495677855  BUTH      256             0.0000000000
     19773       891  BUTH      LPO12         -23.6818403336       -1.6809883060       10.2068896349  BUTH      256             0.0000000000
     19774       891  BUTH      LPO21         -22.5573676935       -3.0863552730        8.9360214305  BUTH      256             0.0000000000
     19775       891  BUTH      LPO22         -22.6508018832       -2.5979004847        8.5054835569  BUTH      256             0.0000000000
     19776       892  BUTH      C1            -23.2832529121      -11.5964106857       10.6338988970  BUTH      257             0.0000000000
     19777       892  BUTH      DC1           -23.2811849909      -11.6408472251       10.5756154176  BUTH      257             0.0000000000
     19778       892  BUTH      C2            -22.2170072013      -12.1162807869        9.6739931441  BUTH      257             0.0000000000
     19779       892  BUTH      DC2           -22.1817808507      -12.0327522919        9.6204097066  BUTH      257             0.0000000000
     19780       892  BUTH      C3            -22.5608751441      -13.4923384743        9.0730654538  BUTH      257             0.0000000000
     19781       892  BUTH      DC3           -22.5631288004      -13.4781021850        9.0995952747  BUTH      257             0.0000000000
     19782       892  BUTH      C4            -22.8990505580      -14.4389664872        9.9921926606  BUTH      257             0.0000000000
     19783       892  BUTH      DC4           -22.8917445046      -14.4152047526        9.9796135208  BUTH      257             0.0000000000
     19784       892  BUTH      O1            -24.0701191910      -14.8361089697        9.9292772128  BUTH      257             0.0000000000
     19785       892  BUTH      DO1           -24.0169344163      -14.8635761090        9.9468274919  BUTH      257             0.0000000000
     19786       892  BUTH      O2            -22.0730981412      -15.2427863054       10.4337464149  BUTH      257             0.0000000000
     19787       892  BUTH      DO2           -22.0757904053      -15.2288664257       10.4182415112  BUTH      257             0.0000000000
     19788       892  BUTH      H1            -24.2681830605      -11.4838463993       10.1323384464  BUTH      257             0.0000000000
     19789       892  BUTH      H2            -23.4241715639      -12.2869554696       11.4927416273  BUTH      257             0.0000000000
     19790       892  BUTH      H3            -22.9953295331      -10.6166389759       11.0714700620  BUTH      257             0.0000000000
     19791       892  BUTH      H4            -21.2779337657      -12.2482409973       10.2528269599  BUTH      257             0.0000000000
     19792       892  BUTH      H5            -22.0109964051      -11.3673025508        8.8796933557  BUTH      257             0.0000000000
     19793       892  BUTH      H6            -21.6631586415      -13.8006534950        8.4956852236  BUTH      257             0.0000000000
     19794       892  BUTH      H7            -23.3402632276      -13.3134356189        8.3017879528  BUTH      257             0.0000000000
     19795       892  BUTH      H8            -22.6921352901      -15.9381924053       10.7059657463  BUTH      257             0.0000000000
     19796       892  BUTH      H9            -24.2772609640      -15.5817958696       10.5123761179  BUTH      257             0.0000000000
     19797       892  BUTH      LPO11         -24.2386013418      -14.6715003715        9.6703992990  BUTH      257             0.0000000000
     19798       892  BUTH      LPO12         -24.1280750586      -15.0775091020       10.1759897855  BUTH      257             0.0000000000
     19799       892  BUTH      LPO21         -21.9300491085      -15.3899073562       10.1502109310  BUTH      257             0.0000000000
     19800       892  BUTH      LPO22         -21.9790177139      -15.1134564463       10.7450704595  BUTH      257             0.0000000000
     19801       893  BUTH      C1            -27.2038326130       -7.2926435974      -27.6173444529  BUTH      258             0.0000000000
     19802       893  BUTH      DC1           -27.2010382587       -7.3127441012      -27.5750677591  BUTH      258             0.0000000000
     19803       893  BUTH      C2            -27.7661468655       -6.8691383337      -26.2632751139  BUTH      258             0.0000000000
     19804       893  BUTH      DC2           -27.8077304310       -6.8224452527      -26.2922174612  BUTH      258             0.0000000000
     19805       893  BUTH      C3            -26.7846932087       -7.1226771779      -25.0939041203  BUTH      258             0.0000000000
     19806       893  BUTH      DC3           -26.7756540916       -7.1604935011      -25.1142617907  BUTH      258             0.0000000000
     19807       893  BUTH      C4            -26.3278082373       -8.3965684852      -24.9463484851  BUTH      258             0.0000000000
     19808       893  BUTH      DC4           -26.3301895842       -8.3902317604      -24.9523176776  BUTH      258             0.0000000000
     19809       893  BUTH      O1            -25.1517387651       -8.5877801040      -25.2826494906  BUTH      258             0.0000000000
     19810       893  BUTH      DO1           -25.1795152238       -8.6229431258      -25.2342341076  BUTH      258             0.0000000000
     19811       893  BUTH      O2            -26.7188584401       -9.1331902354      -24.0478011261  BUTH      258             0.0000000000
     19812       893  BUTH      DO2           -26.7097221189       -9.1153234478      -24.0451696706  BUTH      258             0.0000000000
     19813       893  BUTH      H1            -26.2430053723       -6.7772550142      -27.8306672641  BUTH      258             0.0000000000
     19814       893  BUTH      H2            -27.0083918837       -8.3855718333      -27.6577399151  BUTH      258             0.0000000000
     19815       893  BUTH      H3            -27.9077847250       -7.0450274586      -28.4404232294  BUTH      258             0.0000000000
     19816       893  BUTH      H4            -28.7122590487       -7.4177259330      -26.0677134033  BUTH      258             0.0000000000
     19817       893  BUTH      H5            -28.0127571013       -5.7861343440      -26.2879074563  BUTH      258             0.0000000000
     19818       893  BUTH      H6            -27.3172971673       -6.7719276503      -24.1841630620  BUTH      258             0.0000000000
     19819       893  BUTH      H7            -25.9727700861       -6.3784270170      -25.2394841363  BUTH      258             0.0000000000
     19820       893  BUTH      H8            -26.0217134193       -9.8025533738      -24.1305163643  BUTH      258             0.0000000000
     19821       893  BUTH      H9            -24.8123777863       -9.4743647442      -25.0883229566  BUTH      258             0.0000000000
     19822       893  BUTH      LPO11         -25.0100825397       -8.2891429132      -25.3977552771  BUTH      258             0.0000000000
     19823       893  BUTH      LPO12         -25.0659690471       -8.9233934121      -25.2325769145  BUTH      258             0.0000000000
     19824       893  BUTH      LPO21         -26.6230672619       -8.9731184842      -23.7516574369  BUTH      258             0.0000000000
     19825       893  BUTH      LPO22         -26.9922643222       -9.3042399050      -24.1837836036  BUTH      258             0.0000000000
     19826       894  BUTH      C1             -0.2035524324       22.5184040380        2.0209918078  BUTH      259             0.0000000000
     19827       894  BUTH      DC1            -0.1556431833       22.4999561325        2.0460824456  BUTH      259             0.0000000000
     19828       894  BUTH      C2              0.1676562751       21.5089605487        3.1015749356  BUTH      259             0.0000000000
     19829       894  BUTH      DC2             0.0943956532       21.5146949234        3.1453736986  BUTH      259             0.0000000000
     19830       894  BUTH      C3              1.6768254009       21.3846458698        3.3737208735  BUTH      259             0.0000000000
     19831       894  BUTH      DC3             1.6689632745       21.3941838904        3.3167027216  BUTH      259             0.0000000000
     19832       894  BUTH      C4              2.4249205330       21.2119180757        2.2550296382  BUTH      259             0.0000000000
     19833       894  BUTH      DC4             2.4182597850       21.2207703010        2.2458237922  BUTH      259             0.0000000000
     19834       894  BUTH      O1              3.1891237513       22.1472217640        1.9754529768  BUTH      259             0.0000000000
     19835       894  BUTH      DO1             3.2043619615       22.1060263516        1.9551461104  BUTH      259             0.0000000000
     19836       894  BUTH      O2              2.7539996174       20.0988409123        1.8256058511  BUTH      259             0.0000000000
     19837       894  BUTH      DO2             2.7484546311       20.1017635612        1.8199309499  BUTH      259             0.0000000000
     19838       894  BUTH      H1              0.1301412858       23.5441807330        2.2869836800  BUTH      259             0.0000000000
     19839       894  BUTH      H2              0.2464248192       22.2551794426        1.0398932979  BUTH      259             0.0000000000
     19840       894  BUTH      H3             -1.3040233037       22.5528555828        1.8723380066  BUTH      259             0.0000000000
     19841       894  BUTH      H4             -0.2066372280       20.5093498850        2.7933479169  BUTH      259             0.0000000000
     19842       894  BUTH      H5             -0.3239609979       21.7887132747        4.0578028735  BUTH      259             0.0000000000
     19843       894  BUTH      H6              1.7885077911       20.5285303814        4.0729449551  BUTH      259             0.0000000000
     19844       894  BUTH      H7              1.9533338840       22.2673773417        3.9890656627  BUTH      259             0.0000000000
     19845       894  BUTH      H8              3.6372843488       20.3539333688        1.5163552700  BUTH      259             0.0000000000
     19846       894  BUTH      H9              3.7603630306       21.9869698383        1.2093159091  BUTH      259             0.0000000000
     19847       894  BUTH      LPO11           3.1585768680       22.4020005245        2.2134753941  BUTH      259             0.0000000000
     19848       894  BUTH      LPO12           3.3672504384       22.0730650313        1.6834398567  BUTH      259             0.0000000000
     19849       894  BUTH      LPO21           2.8343710991       19.9117011380        2.1102444462  BUTH      259             0.0000000000
     19850       894  BUTH      LPO22           2.5840391819       20.0648120906        1.5215409079  BUTH      259             0.0000000000
     19851       895  BUTH      C1            -16.2712680550       -2.7023460436       17.5450219590  BUTH      260             0.0000000000
     19852       895  BUTH      DC1           -16.3244785381       -2.7676905858       17.5352013524  BUTH      260             0.0000000000
     19853       895  BUTH      C2            -15.8540047739       -4.1340083428       17.3038012260  BUTH      260             0.0000000000
     19854       895  BUTH      DC2           -15.8021506443       -4.1415418926       17.3088296873  BUTH      260             0.0000000000
     19855       895  BUTH      C3            -16.7549169459       -4.8462554066       16.2874624220  BUTH      260             0.0000000000
     19856       895  BUTH      DC3           -16.8399091765       -4.8554308806       16.3148127645  BUTH      260             0.0000000000
     19857       895  BUTH      C4            -18.0710122042       -4.7732904723       16.5702610817  BUTH      260             0.0000000000
     19858       895  BUTH      DC4           -18.1089704637       -4.7669627087       16.5826763000  BUTH      260             0.0000000000
     19859       895  BUTH      O1            -18.8121374202       -4.2689770588       15.7141276789  BUTH      260             0.0000000000
     19860       895  BUTH      DO1           -18.8708936770       -4.3472171551       15.7550202475  BUTH      260             0.0000000000
     19861       895  BUTH      O2            -18.6266373951       -5.7104341799       17.0418726047  BUTH      260             0.0000000000
     19862       895  BUTH      DO2           -18.6361344583       -5.7198139319       17.0453962033  BUTH      260             0.0000000000
     19863       895  BUTH      H1            -16.2110396357       -2.1368536204       16.5906049334  BUTH      260             0.0000000000
     19864       895  BUTH      H2            -17.3051045568       -2.6221338488       17.9438566256  BUTH      260             0.0000000000
     19865       895  BUTH      H3            -15.5899868968       -2.2059661731       18.2687511955  BUTH      260             0.0000000000
     19866       895  BUTH      H4            -15.9163893755       -4.6912720627       18.2629082630  BUTH      260             0.0000000000
     19867       895  BUTH      H5            -14.7952614933       -4.1639605780       16.9684111108  BUTH      260             0.0000000000
     19868       895  BUTH      H6            -16.4040013460       -5.9000183032       16.3150848796  BUTH      260             0.0000000000
     19869       895  BUTH      H7            -16.4571222715       -4.4748543704       15.2836195049  BUTH      260             0.0000000000
     19870       895  BUTH      H8            -19.3901984762       -5.6112260668       16.4519300432  BUTH      260             0.0000000000
     19871       895  BUTH      H9            -19.7587854592       -4.3631790643       15.8983679373  BUTH      260             0.0000000000
     19872       895  BUTH      LPO11         -18.6240262675       -4.1708549512       15.4357641644  BUTH      260             0.0000000000
     19873       895  BUTH      LPO12         -19.1433902588       -4.2696955555       15.8271367081  BUTH      260             0.0000000000
     19874       895  BUTH      LPO21         -18.4653298281       -5.9899228694       16.9063516053  BUTH      260             0.0000000000
     19875       895  BUTH      LPO22         -18.7547132804       -5.5965720874       17.3470479502  BUTH      260             0.0000000000
     19876       896  BUTH      C1             16.9392019125       16.6929197597       11.8108881453  BUTH      261             0.0000000000
     19877       896  BUTH      DC1            16.9631635808       16.7343104337       11.8285007685  BUTH      261             0.0000000000
     19878       896  BUTH      C2             16.0527081376       17.2312842980       12.9307865071  BUTH      261             0.0000000000
     19879       896  BUTH      DC2            16.0259433236       17.1693028304       12.9352015423  BUTH      261             0.0000000000
     19880       896  BUTH      C3             15.9661896906       18.7729018403       12.9455575620  BUTH      261             0.0000000000
     19881       896  BUTH      DC3            16.0300124391       18.7700332223       12.9402002985  BUTH      261             0.0000000000
     19882       896  BUTH      C4             17.1703268286       19.3982535479       12.9043143467  BUTH      261             0.0000000000
     19883       896  BUTH      DC4            17.1860235223       19.3859641759       12.9089035371  BUTH      261             0.0000000000
     19884       896  BUTH      O1             17.4270203387       20.0436443214       11.8831226202  BUTH      261             0.0000000000
     19885       896  BUTH      DO1            17.4556725577       20.0552358422       11.9545824021  BUTH      261             0.0000000000
     19886       896  BUTH      O2             17.7564527663       19.8093487718       13.8863606476  BUTH      261             0.0000000000
     19887       896  BUTH      DO2            17.7703157138       19.8027306159       13.8932512149  BUTH      261             0.0000000000
     19888       896  BUTH      H1             16.5669166505       17.0236953581       10.8177556334  BUTH      261             0.0000000000
     19889       896  BUTH      H2             17.9874283648       17.0447897651       11.9191923714  BUTH      261             0.0000000000
     19890       896  BUTH      H3             16.9480476896       15.5819549961       11.8106730060  BUTH      261             0.0000000000
     19891       896  BUTH      H4             16.4440457859       16.8836789753       13.9107591520  BUTH      261             0.0000000000
     19892       896  BUTH      H5             15.0264201560       16.8203427421       12.8204188618  BUTH      261             0.0000000000
     19893       896  BUTH      H6             15.3780692087       19.0400033727       13.8494890150  BUTH      261             0.0000000000
     19894       896  BUTH      H7             15.2927101752       19.0458048126       12.1051586627  BUTH      261             0.0000000000
     19895       896  BUTH      H8             18.1096727811       20.5776479830       13.4111218201  BUTH      261             0.0000000000
     19896       896  BUTH      H9             18.2530294784       20.5485301236       11.9250776933  BUTH      261             0.0000000000
     19897       896  BUTH      LPO11          17.1596371328       20.0231796317       11.6582061520  BUTH      261             0.0000000000
     19898       896  BUTH      LPO12          17.7441650625       20.1892217361       11.9100751806  BUTH      261             0.0000000000
     19899       896  BUTH      LPO21          17.5095021958       19.9558779654       14.0864721444  BUTH      261             0.0000000000
     19900       896  BUTH      LPO22          18.0401269860       19.6064971210       13.9160278832  BUTH      261             0.0000000000
     19901       897  BUTH      C1             -2.9713237437        8.8159480016       -2.3741950909  BUTH      262             0.0000000000
     19902       897  BUTH      DC1            -3.0198367755        8.8525589685       -2.3715554292  BUTH      262             0.0000000000
     19903       897  BUTH      C2             -3.4736590914        9.3222002893       -1.0275237423  BUTH      262             0.0000000000
     19904       897  BUTH      DC2            -3.4111019412        9.2999899470       -0.9862120262  BUTH      262             0.0000000000
     19905       897  BUTH      C3             -5.0075679880        9.4857367165       -0.9963631121  BUTH      262             0.0000000000
     19906       897  BUTH      DC3            -4.9881185302        9.4891971610       -1.0327947216  BUTH      262             0.0000000000
     19907       897  BUTH      C4             -5.5379950693       10.1957075393       -2.0318412618  BUTH      262             0.0000000000
     19908       897  BUTH      DC4            -5.5250612624       10.1828344301       -2.0218588632  BUTH      262             0.0000000000
     19909       897  BUTH      O1             -6.1978212984        9.5329899101       -2.8484949803  BUTH      262             0.0000000000
     19910       897  BUTH      DO1            -6.1989043761        9.5734585150       -2.8350940274  BUTH      262             0.0000000000
     19911       897  BUTH      O2             -5.7419279542       11.4232734196       -1.9638265840  BUTH      262             0.0000000000
     19912       897  BUTH      DO2            -5.7270463389       11.4087396692       -1.9502830651  BUTH      262             0.0000000000
     19913       897  BUTH      H1             -3.3675112374        7.8026337926       -2.5990301037  BUTH      262             0.0000000000
     19914       897  BUTH      H2             -3.2812856182        9.4896866505       -3.2014319805  BUTH      262             0.0000000000
     19915       897  BUTH      H3             -1.8624338221        8.7494356655       -2.3903274536  BUTH      262             0.0000000000
     19916       897  BUTH      H4             -3.0075130332       10.3063614189       -0.8073971344  BUTH      262             0.0000000000
     19917       897  BUTH      H5             -3.1561603678        8.6222206852       -0.2253117279  BUTH      262             0.0000000000
     19918       897  BUTH      H6             -5.2413125590        9.9561358850       -0.0173794053  BUTH      262             0.0000000000
     19919       897  BUTH      H7             -5.4128317025        8.4553992028       -0.9042385801  BUTH      262             0.0000000000
     19920       897  BUTH      H8             -6.3772615770       11.5262928234       -2.6895249994  BUTH      262             0.0000000000
     19921       897  BUTH      H9             -6.6386969585       10.0615167846       -3.5305866129  BUTH      262             0.0000000000
     19922       897  BUTH      LPO11          -6.2026704689        9.1962243558       -2.7532823397  BUTH      262             0.0000000000
     19923       897  BUTH      LPO12          -6.3202078740        9.7419621633       -3.1011847575  BUTH      262             0.0000000000
     19924       897  BUTH      LPO21          -5.9540532601       11.4637990514       -1.6883986846  BUTH      262             0.0000000000
     19925       897  BUTH      LPO22          -5.4582003890       11.5693957491       -2.1075169928  BUTH      262             0.0000000000
     19926       898  BUTH      C1             18.4906412227       18.9867172245      -20.5458119694  BUTH      263             0.0000000000
     19927       898  BUTH      DC1            18.4121439192       19.0309624124      -20.5252065474  BUTH      263             0.0000000000
     19928       898  BUTH      C2             17.2197559007       19.1944540356      -21.3597340338  BUTH      263             0.0000000000
     19929       898  BUTH      DC2            17.1894957786       19.1298825665      -21.3891286785  BUTH      263             0.0000000000
     19930       898  BUTH      C3             17.0694740894       20.6476652092      -21.8349280698  BUTH      263             0.0000000000
     19931       898  BUTH      DC3            17.0551624215       20.6711547573      -21.7771042659  BUTH      263             0.0000000000
     19932       898  BUTH      C4             17.0779541321       21.5133589954      -20.7904446985  BUTH      263             0.0000000000
     19933       898  BUTH      DC4            17.0547775210       21.5088093155      -20.7718147724  BUTH      263             0.0000000000
     19934       898  BUTH      O1             17.9583991022       22.3743188560      -20.7780523514  BUTH      263             0.0000000000
     19935       898  BUTH      DO1            17.8586425398       22.3901681341      -20.7337390293  BUTH      263             0.0000000000
     19936       898  BUTH      O2             16.0644096661       21.9416943274      -20.2732568166  BUTH      263             0.0000000000
     19937       898  BUTH      DO2            16.0340525271       21.9416216191      -20.2684156251  BUTH      263             0.0000000000
     19938       898  BUTH      H1             19.3920735888       19.2447244376      -21.1417758671  BUTH      263             0.0000000000
     19939       898  BUTH      H2             18.5099638364       19.6139612416      -19.6290172373  BUTH      263             0.0000000000
     19940       898  BUTH      H3             18.6042350790       17.9239559123      -20.2425697732  BUTH      263             0.0000000000
     19941       898  BUTH      H4             16.3294971446       18.9387712081      -20.7462304559  BUTH      263             0.0000000000
     19942       898  BUTH      H5             17.2371192193       18.5147194008      -22.2383581521  BUTH      263             0.0000000000
     19943       898  BUTH      H6             16.1253669340       20.6803436709      -22.4196628797  BUTH      263             0.0000000000
     19944       898  BUTH      H7             17.8696983282       20.8142139782      -22.5874064251  BUTH      263             0.0000000000
     19945       898  BUTH      H8             16.5207161282       22.7713998443      -20.0628449122  BUTH      263             0.0000000000
     19946       898  BUTH      H9             17.8696500534       23.0359267479      -20.0756567337  BUTH      263             0.0000000000
     19947       898  BUTH      LPO11          18.1629279040       22.3404465192      -21.0600463833  BUTH      263             0.0000000000
     19948       898  BUTH      LPO12          17.9250365045       22.5755693211      -20.4936491388  BUTH      263             0.0000000000
     19949       898  BUTH      LPO21          15.8566669754       22.0360685227      -20.5386555463  BUTH      263             0.0000000000
     19950       898  BUTH      LPO22          16.0457379290       21.7854934536      -19.9606026094  BUTH      263             0.0000000000
     19951       899  BUTH      C1            -10.1739621874      -10.7117848848       -8.6899784669  BUTH      264             0.0000000000
     19952       899  BUTH      DC1           -10.1680987757      -10.7052292459       -8.6600870649  BUTH      264             0.0000000000
     19953       899  BUTH      C2             -9.6363050380       -9.2883051646       -8.6420129119  BUTH      264             0.0000000000
     19954       899  BUTH      DC2            -9.5855155731       -9.3099364527       -8.7084517890  BUTH      264             0.0000000000
     19955       899  BUTH      C3             -9.5801658061       -8.6583535818       -7.2264858514  BUTH      264             0.0000000000
     19956       899  BUTH      DC3            -9.5966803637       -8.6786002161       -7.2384493232  BUTH      264             0.0000000000
     19957       899  BUTH      C4            -10.6537144063       -8.8144684074       -6.3835938997  BUTH      264             0.0000000000
     19958       899  BUTH      DC4           -10.5806983615       -8.8191473737       -6.3539958542  BUTH      264             0.0000000000
     19959       899  BUTH      O1            -10.3475187728       -9.5364258925       -5.4034703917  BUTH      264             0.0000000000
     19960       899  BUTH      DO1           -10.3441369714       -9.5221130915       -5.3744523042  BUTH      264             0.0000000000
     19961       899  BUTH      O2            -11.3849161852       -7.8088106214       -6.1329430606  BUTH      264             0.0000000000
     19962       899  BUTH      DO2           -11.3166258186       -7.7888187545       -6.0944919747  BUTH      264             0.0000000000
     19963       899  BUTH      H1             -9.5258875232      -11.4171906109       -8.1271969884  BUTH      264             0.0000000000
     19964       899  BUTH      H2            -11.1902232915      -10.7501385187       -8.2426940306  BUTH      264             0.0000000000
     19965       899  BUTH      H3            -10.2573341440      -11.0710860464       -9.7379635782  BUTH      264             0.0000000000
     19966       899  BUTH      H4            -10.2734429151       -8.6429318029       -9.2837835497  BUTH      264             0.0000000000
     19967       899  BUTH      H5             -8.6073160896       -9.2836054251       -9.0609170257  BUTH      264             0.0000000000
     19968       899  BUTH      H6             -9.3585125349       -7.5858146399       -7.4131701982  BUTH      264             0.0000000000
     19969       899  BUTH      H7             -8.6143757524       -9.0318725059       -6.8239263075  BUTH      264             0.0000000000
     19970       899  BUTH      H8            -12.2380660229       -8.1944494133       -6.3865531484  BUTH      264             0.0000000000
     19971       899  BUTH      H9            -11.0549576402       -9.6323495962       -4.7482682154  BUTH      264             0.0000000000
     19972       899  BUTH      LPO11         -10.0131856563       -9.6368742565       -5.4285999231  BUTH      264             0.0000000000
     19973       899  BUTH      LPO12         -10.6234505360       -9.5736780361       -5.1913997907  BUTH      264             0.0000000000
     19974       899  BUTH      LPO21         -11.4178459500       -7.8044469354       -5.7845229280  BUTH      264             0.0000000000
     19975       899  BUTH      LPO22         -11.3323241148       -7.5888484846       -6.4000586396  BUTH      264             0.0000000000
     19976       900  BUTH      C1             27.1390320042        9.8522271326      -20.4349282036  BUTH      265             0.0000000000
     19977       900  BUTH      DC1            27.1235618871        9.8539957266      -20.3859365359  BUTH      265             0.0000000000
     19978       900  BUTH      C2             27.9209390497       11.0961650358      -20.0308205536  BUTH      265             0.0000000000
     19979       900  BUTH      DC2            27.9620457008       11.0784957400      -20.0648472711  BUTH      265             0.0000000000
     19980       900  BUTH      C3             27.8565386028       11.3598405487      -18.5122049189  BUTH      265             0.0000000000
     19981       900  BUTH      DC3            27.8134864903       11.3446494191      -18.5073622430  BUTH      265             0.0000000000
     19982       900  BUTH      C4             26.6013227460       11.3832930259      -17.9820670177  BUTH      265             0.0000000000
     19983       900  BUTH      DC4            26.6068768751       11.3699265166      -17.9775048522  BUTH      265             0.0000000000
     19984       900  BUTH      O1             26.2236206927       10.3197174038      -17.4412192803  BUTH      265             0.0000000000
     19985       900  BUTH      DO1            26.2003561742       10.3295348562      -17.4232715307  BUTH      265             0.0000000000
     19986       900  BUTH      O2             26.0565953654       12.4579769383      -17.6246933268  BUTH      265             0.0000000000
     19987       900  BUTH      DO2            26.0725483664       12.4606620500      -17.6219406543  BUTH      265             0.0000000000
     19988       900  BUTH      H1             27.5118913635        8.9594804666      -19.8887594658  BUTH      265             0.0000000000
     19989       900  BUTH      H2             26.0577449305        9.9754902092      -20.2114433511  BUTH      265             0.0000000000
     19990       900  BUTH      H3             27.2375063654        9.6598046863      -21.5246976298  BUTH      265             0.0000000000
     19991       900  BUTH      H4             27.5041983918       11.9740005855      -20.5693862149  BUTH      265             0.0000000000
     19992       900  BUTH      H5             28.9805457603       10.9969337472      -20.3497371131  BUTH      265             0.0000000000
     19993       900  BUTH      H6             28.3994940909       12.3160048881      -18.3532392171  BUTH      265             0.0000000000
     19994       900  BUTH      H7             28.5207139857       10.5953641908      -18.0552935941  BUTH      265             0.0000000000
     19995       900  BUTH      H8             25.2896710143       12.0915478829      -17.1572997164  BUTH      265             0.0000000000
     19996       900  BUTH      H9             25.4006215530       10.4013931441      -16.9362811757  BUTH      265             0.0000000000
     19997       900  BUTH      LPO11          26.4758206575       10.0780441245      -17.4633372324  BUTH      265             0.0000000000
     19998       900  BUTH      LPO12          25.8991683509       10.3579343713      -17.3156400570  BUTH      265             0.0000000000
     19999       900  BUTH      LPO21          26.2477714334       12.5706302263      -17.3540257304  BUTH      265             0.0000000000
     20000       900  BUTH      LPO22          25.9017986798       12.5812710600      -17.9133740252  BUTH      265             0.0000000000
     20001       901  BUTH      C1             10.9711477267      -13.4762172933       -0.0028614803  BUTH      266             0.0000000000
     20002       901  BUTH      DC1            10.9627033919      -13.4279552081        0.0460495333  BUTH      266             0.0000000000
     20003       901  BUTH      C2             11.7164750387      -12.7293867631        1.0975551336  BUTH      266             0.0000000000
     20004       901  BUTH      DC2            11.7744086857      -12.7643182923        1.1232451066  BUTH      266             0.0000000000
     20005       901  BUTH      C3             10.8095061787      -11.7425154492        1.8540967009  BUTH      266             0.0000000000
     20006       901  BUTH      DC3            10.7901311571      -11.7288584359        1.8236226094  BUTH      266             0.0000000000
     20007       901  BUTH      C4             10.1555809212      -10.8531663919        1.0542744801  BUTH      266             0.0000000000
     20008       901  BUTH      DC4            10.1528034529      -10.8609896440        1.0612421953  BUTH      266             0.0000000000
     20009       901  BUTH      O1              8.9203681558      -10.9695694779        1.0421485443  BUTH      266             0.0000000000
     20010       901  BUTH      DO1             8.9325591378      -10.9218802882        1.0455526862  BUTH      266             0.0000000000
     20011       901  BUTH      O2             10.5520991833       -9.6961526067        0.9358202505  BUTH      266             0.0000000000
     20012       901  BUTH      DO2            10.5582997201       -9.7049309800        0.9467594069  BUTH      266             0.0000000000
     20013       901  BUTH      H1             10.1186034951      -14.0596276351        0.4059437386  BUTH      266             0.0000000000
     20014       901  BUTH      H2             10.5672615149      -12.7821538369       -0.7706328316  BUTH      266             0.0000000000
     20015       901  BUTH      H3             11.6361509351      -14.1937528607       -0.5293920513  BUTH      266             0.0000000000
     20016       901  BUTH      H4             12.5468956616      -12.1497534778        0.6406658193  BUTH      266             0.0000000000
     20017       901  BUTH      H5             12.1604020952      -13.4572981980        1.8098715751  BUTH      266             0.0000000000
     20018       901  BUTH      H6             11.4651356870      -11.2352874615        2.5938201062  BUTH      266             0.0000000000
     20019       901  BUTH      H7             10.1537197678      -12.3853355649        2.4794345955  BUTH      266             0.0000000000
     20020       901  BUTH      H8              9.6898941455       -9.2952763241        0.7439852204  BUTH      266             0.0000000000
     20021       901  BUTH      H9              8.4487864643      -10.2711436328        0.5638462893  BUTH      266             0.0000000000
     20022       901  BUTH      LPO11           8.8227786451      -11.2318554463        1.2523445436  BUTH      266             0.0000000000
     20023       901  BUTH      LPO12           8.7796109992      -10.7297446501        0.8296127242  BUTH      266             0.0000000000
     20024       901  BUTH      LPO21          10.6060862121       -9.5850497660        1.2632978215  BUTH      266             0.0000000000
     20025       901  BUTH      LPO22          10.7030872367       -9.6841232651        0.6202922760  BUTH      266             0.0000000000
     20026       902  BUTH      C1             -0.7710323797      -22.1241128694       -2.0631663321  BUTH      267             0.0000000000
     20027       902  BUTH      DC1            -0.8163862603      -22.0935209743       -2.0635666634  BUTH      267             0.0000000000
     20028       902  BUTH      C2             -1.0595418169      -20.9272093764       -1.1607368553  BUTH      267             0.0000000000
     20029       902  BUTH      DC2            -0.9989281283      -20.9238017382       -1.1365274559  BUTH      267             0.0000000000
     20030       902  BUTH      C3             -2.5209426775      -20.8958413908       -0.6709987649  BUTH      267             0.0000000000
     20031       902  BUTH      DC3            -2.5413194243      -20.9027648428       -0.7128308072  BUTH      267             0.0000000000
     20032       902  BUTH      C4             -3.4525905724      -20.9910452421       -1.6559009776  BUTH      267             0.0000000000
     20033       902  BUTH      DC4            -3.4399891472      -20.9740938413       -1.6621330928  BUTH      267             0.0000000000
     20034       902  BUTH      O1             -4.2936879120      -21.8664503610       -1.4791483882  BUTH      267             0.0000000000
     20035       902  BUTH      DO1            -4.3137115031      -21.7582270580       -1.5164015211  BUTH      267             0.0000000000
     20036       902  BUTH      O2             -4.0045049518      -20.0394448959       -2.1368081213  BUTH      267             0.0000000000
     20037       902  BUTH      DO2            -4.0130091415      -20.0235346122       -2.1326353078  BUTH      267             0.0000000000
     20038       902  BUTH      H1             -0.9496576903      -23.0823182552       -1.5300092833  BUTH      267             0.0000000000
     20039       902  BUTH      H2             -1.4102937188      -22.1241461403       -2.9718279524  BUTH      267             0.0000000000
     20040       902  BUTH      H3              0.2892099752      -22.1243815784       -2.3951408442  BUTH      267             0.0000000000
     20041       902  BUTH      H4             -0.8474159155      -19.9850550640       -1.7099807484  BUTH      267             0.0000000000
     20042       902  BUTH      H5             -0.3847878945      -20.9559667560       -0.2785797507  BUTH      267             0.0000000000
     20043       902  BUTH      H6             -2.6223015589      -19.9594363505       -0.0817679294  BUTH      267             0.0000000000
     20044       902  BUTH      H7             -2.5780429888      -21.7065280345        0.0865286079  BUTH      267             0.0000000000
     20045       902  BUTH      H8             -4.8043457981      -20.5725476732       -2.2670235179  BUTH      267             0.0000000000
     20046       902  BUTH      H9             -4.9671661853      -21.9260037973       -2.1732963578  BUTH      267             0.0000000000
     20047       902  BUTH      LPO11          -4.2309081590      -22.0337646290       -1.1782087957  BUTH      267             0.0000000000
     20048       902  BUTH      LPO12          -4.5206115848      -21.8699753298       -1.7455939198  BUTH      267             0.0000000000
     20049       902  BUTH      LPO21          -4.0927011415      -19.8361181166       -1.8659213314  BUTH      267             0.0000000000
     20050       902  BUTH      LPO22          -3.8779041733      -20.0127864951       -2.4620181650  BUTH      267             0.0000000000
     20051       903  BUTH      C1             27.5089748613       -2.0754947934      -25.7313397514  BUTH      268             0.0000000000
     20052       903  BUTH      DC1            27.4761610000       -2.0958812821      -25.6844691475  BUTH      268             0.0000000000
     20053       903  BUTH      C2             26.3105205716       -1.6133197449      -24.9096597098  BUTH      268             0.0000000000
     20054       903  BUTH      DC2            26.2846527164       -1.5483148906      -24.9403532347  BUTH      268             0.0000000000
     20055       903  BUTH      C3             26.3016063871       -2.2308859102      -23.4942128997  BUTH      268             0.0000000000
     20056       903  BUTH      DC3            26.3048629426       -2.2565592433      -23.5126592051  BUTH      268             0.0000000000
     20057       903  BUTH      C4             26.4705567334       -3.5845117082      -23.4429819327  BUTH      268             0.0000000000
     20058       903  BUTH      DC4            26.4561110395       -3.5663417559      -23.4497849277  BUTH      268             0.0000000000
     20059       903  BUTH      O1             27.5313575734       -3.9623067621      -22.9368342401  BUTH      268             0.0000000000
     20060       903  BUTH      DO1            27.4699574662       -3.9786256174      -22.9363051697  BUTH      268             0.0000000000
     20061       903  BUTH      O2             25.5198039402       -4.3589002086      -23.3012747273  BUTH      268             0.0000000000
     20062       903  BUTH      DO2            25.5003559427       -4.3354130061      -23.3050705042  BUTH      268             0.0000000000
     20063       903  BUTH      H1             28.4640955027       -1.8052944039      -25.2322833308  BUTH      268             0.0000000000
     20064       903  BUTH      H2             27.5060836376       -3.1768092528      -25.8776924159  BUTH      268             0.0000000000
     20065       903  BUTH      H3             27.5152624769       -1.6035226308      -26.7370851188  BUTH      268             0.0000000000
     20066       903  BUTH      H4             25.3773812858       -1.8964509446      -25.4420212383  BUTH      268             0.0000000000
     20067       903  BUTH      H5             26.3226989174       -0.5055213691      -24.8262603870  BUTH      268             0.0000000000
     20068       903  BUTH      H6             25.3425785839       -1.9107119401      -23.0336965569  BUTH      268             0.0000000000
     20069       903  BUTH      H7             27.0708631953       -1.6607855790      -22.9306966396  BUTH      268             0.0000000000
     20070       903  BUTH      H8             26.0233467216       -5.1130870127      -22.9569682754  BUTH      268             0.0000000000
     20071       903  BUTH      H9             27.5881175897       -4.9197310031      -22.7987106604  BUTH      268             0.0000000000
     20072       903  BUTH      LPO11          27.7219871870       -3.6858952032      -22.8380567099  BUTH      268             0.0000000000
     20073       903  BUTH      LPO12          27.5464404906       -4.3119810616      -22.9374586403  BUTH      268             0.0000000000
     20074       903  BUTH      LPO21          25.3570034541       -4.2501105085      -23.0111699136  BUTH      268             0.0000000000
     20075       903  BUTH      LPO22          25.4455027053       -4.4709835012      -23.6244103985  BUTH      268             0.0000000000
     20076       904  BUTH      C1            -17.4888144150      -15.6207926185      -23.2559429686  BUTH      269             0.0000000000
     20077       904  BUTH      DC1           -17.4625020376      -15.6065565985      -23.2001844500  BUTH      269             0.0000000000
     20078       904  BUTH      C2            -17.1875572161      -16.2711455542      -21.9091646640  BUTH      269             0.0000000000
     20079       904  BUTH      DC2           -17.2253874749      -16.3303256734      -21.9081839891  BUTH      269             0.0000000000
     20080       904  BUTH      C3            -16.8734057916      -15.2362707497      -20.8074464570  BUTH      269             0.0000000000
     20081       904  BUTH      DC3           -16.8545570252      -15.2123858264      -20.8296069475  BUTH      269             0.0000000000
     20082       904  BUTH      C4            -15.9377981223      -14.3054314997      -21.1482841672  BUTH      269             0.0000000000
     20083       904  BUTH      DC4           -15.9324879155      -14.3238898489      -21.1472074364  BUTH      269             0.0000000000
     20084       904  BUTH      O1            -16.3525330735      -13.1451187067      -21.1808892117  BUTH      269             0.0000000000
     20085       904  BUTH      DO1           -16.2794314455      -13.1755648755      -21.1527149434  BUTH      269             0.0000000000
     20086       904  BUTH      O2            -14.7813022895      -14.3503399224      -20.7555565841  BUTH      269             0.0000000000
     20087       904  BUTH      DO2           -14.7695395427      -14.3640393852      -20.7454236352  BUTH      269             0.0000000000
     20088       904  BUTH      H1            -18.3654062346      -14.9411610514      -23.1926285524  BUTH      269             0.0000000000
     20089       904  BUTH      H2            -16.6286707787      -15.0232139864      -23.6265825555  BUTH      269             0.0000000000
     20090       904  BUTH      H3            -17.7162173465      -16.3848318068      -24.0297989163  BUTH      269             0.0000000000
     20091       904  BUTH      H4            -16.3140490588      -16.9479082689      -22.0244760995  BUTH      269             0.0000000000
     20092       904  BUTH      H5            -18.0469440773      -16.9000368496      -21.5925087568  BUTH      269             0.0000000000
     20093       904  BUTH      H6            -16.5721789258      -15.8256919845      -19.9151651203  BUTH      269             0.0000000000
     20094       904  BUTH      H7            -17.8593184334      -14.8080155071      -20.5265644357  BUTH      269             0.0000000000
     20095       904  BUTH      H8            -14.7026502604      -13.3835399158      -20.7589632957  BUTH      269             0.0000000000
     20096       904  BUTH      H9            -15.6689717816      -12.4750793982      -21.3317278209  BUTH      269             0.0000000000
     20097       904  BUTH      LPO11         -16.6923622960      -13.1370736995      -21.0975142910  BUTH      269             0.0000000000
     20098       904  BUTH      LPO12         -16.0932574902      -12.9277970846      -21.2705969843  BUTH      269             0.0000000000
     20099       904  BUTH      LPO21         -14.8023685393      -14.4198038348      -20.4131664878  BUTH      269             0.0000000000
     20100       904  BUTH      LPO22         -14.5916229142      -14.4391432094      -21.0359771803  BUTH      269             0.0000000000
     20101       905  BUTH      C1             29.2037126902        1.8014546265        9.7047832078  BUTH      270             0.0000000000
     20102       905  BUTH      DC1            29.1707291138        1.7811398322        9.6604994542  BUTH      270             0.0000000000
     20103       905  BUTH      C2             27.9804115865        0.9148012604        9.8969721237  BUTH      270             0.0000000000
     20104       905  BUTH      DC2            27.9876324318        0.8908260346        9.9356374397  BUTH      270             0.0000000000
     20105       905  BUTH      C3             27.4271151937        0.3953968539        8.5548684917  BUTH      270             0.0000000000
     20106       905  BUTH      DC3            27.4200782261        0.4534378659        8.5048220667  BUTH      270             0.0000000000
     20107       905  BUTH      C4             27.1815745950        1.3651234481        7.6316965704  BUTH      270             0.0000000000
     20108       905  BUTH      DC4            27.1756728783        1.3754394798        7.6118898933  BUTH      270             0.0000000000
     20109       905  BUTH      O1             27.8642991342        1.2730453485        6.5945422015  BUTH      270             0.0000000000
     20110       905  BUTH      DO1            27.8000521475        1.2849134741        6.5663913728  BUTH      270             0.0000000000
     20111       905  BUTH      O2             26.0181890024        1.7371813874        7.3942251812  BUTH      270             0.0000000000
     20112       905  BUTH      DO2            25.9963073968        1.7352360676        7.3951984618  BUTH      270             0.0000000000
     20113       905  BUTH      H1             30.0330319825        1.2496985471        9.2127306277  BUTH      270             0.0000000000
     20114       905  BUTH      H2             28.9668294489        2.6875214479        9.0778119817  BUTH      270             0.0000000000
     20115       905  BUTH      H3             29.5779194812        2.1737092951       10.6823908691  BUTH      270             0.0000000000
     20116       905  BUTH      H4             27.1931700438        1.4980315335       10.4208177134  BUTH      270             0.0000000000
     20117       905  BUTH      H5             28.2342270896        0.0524464056       10.5498448499  BUTH      270             0.0000000000
     20118       905  BUTH      H6             26.5113976463       -0.1745413864        8.8212381182  BUTH      270             0.0000000000
     20119       905  BUTH      H7             28.1425475141       -0.3922659818        8.2353925887  BUTH      270             0.0000000000
     20120       905  BUTH      H8             26.1480781996        1.7746682932        6.4336922414  BUTH      270             0.0000000000
     20121       905  BUTH      H9             27.6275138204        1.9030944229        5.8974540584  BUTH      270             0.0000000000
     20122       905  BUTH      LPO11          28.0769524003        0.9958406896        6.6154267764  BUTH      270             0.0000000000
     20123       905  BUTH      LPO12          27.7829233129        1.5325448028        6.3742287682  BUTH      270             0.0000000000
     20124       905  BUTH      LPO21          25.8210425000        1.4497474138        7.4260837345  BUTH      270             0.0000000000
     20125       905  BUTH      LPO22          26.0114966138        2.0773486153        7.4763316304  BUTH      270             0.0000000000
     20126       906  BUTH      C1              1.7465473600       19.6474373182       20.6440613732  BUTH      271             0.0000000000
     20127       906  BUTH      DC1             1.7387825976       19.5936283443       20.5973008242  BUTH      271             0.0000000000
     20128       906  BUTH      C2              0.6190058386       19.2692266335       19.6978139135  BUTH      271             0.0000000000
     20129       906  BUTH      DC2             0.5794787917       19.3030309772       19.7027481935  BUTH      271             0.0000000000
     20130       906  BUTH      C3              0.6935178057       17.8049091592       19.2210063641  BUTH      271             0.0000000000
     20131       906  BUTH      DC3             0.7578728494       17.8000914724       19.1993026800  BUTH      271             0.0000000000
     20132       906  BUTH      C4              1.8206358724       17.5245359344       18.5215659721  BUTH      271             0.0000000000
     20133       906  BUTH      DC4             1.8358323079       17.5258512857       18.5139824261  BUTH      271             0.0000000000
     20134       906  BUTH      O1              2.6316826904       16.7647186365       19.0755427150  BUTH      271             0.0000000000
     20135       906  BUTH      DO1             2.6290522836       16.7579565186       19.0274357335  BUTH      271             0.0000000000
     20136       906  BUTH      O2              1.8639137081       17.5777683479       17.2719896245  BUTH      271             0.0000000000
     20137       906  BUTH      DO2             1.8546226469       17.5873336426       17.2729845694  BUTH      271             0.0000000000
     20138       906  BUTH      H1              1.8331684903       18.9336375594       21.4910015624  BUTH      271             0.0000000000
     20139       906  BUTH      H2              2.7262913363       19.6764327951       20.1210107028  BUTH      271             0.0000000000
     20140       906  BUTH      H3              1.5794733624       20.6566546007       21.0775215889  BUTH      271             0.0000000000
     20141       906  BUTH      H4              0.6166149176       19.9597474451       18.8274712842  BUTH      271             0.0000000000
     20142       906  BUTH      H5             -0.3462016945       19.4334198328       20.2229196285  BUTH      271             0.0000000000
     20143       906  BUTH      H6             -0.2265172515       17.6287927387       18.6236459197  BUTH      271             0.0000000000
     20144       906  BUTH      H7              0.5421963468       17.1820548397       20.1284617695  BUTH      271             0.0000000000
     20145       906  BUTH      H8              2.6188185786       16.9865867033       17.1252827730  BUTH      271             0.0000000000
     20146       906  BUTH      H9              3.3942009289       16.5221285481       18.5290292327  BUTH      271             0.0000000000
     20147       906  BUTH      LPO11           2.5105628202       16.6687587685       19.3895836052  BUTH      271             0.0000000000
     20148       906  BUTH      LPO12           2.9091720885       16.7141860092       18.8683083367  BUTH      271             0.0000000000
     20149       906  BUTH      LPO21           1.6010129577       17.3736845935       17.1636705745  BUTH      271             0.0000000000
     20150       906  BUTH      LPO22           2.0102951382       17.8873662052       17.1997286825  BUTH      271             0.0000000000
     20151       907  BUTH      C1              8.2279685227      -11.1734967853      -19.8673909707  BUTH      272             0.0000000000
     20152       907  BUTH      DC1             8.2270830390      -11.1685782819      -19.8288111137  BUTH      272             0.0000000000
     20153       907  BUTH      C2              8.0786775536      -12.6003476680      -20.3811783315  BUTH      272             0.0000000000
     20154       907  BUTH      DC2             8.0638431240      -12.5409314299      -20.4427899531  BUTH      272             0.0000000000
     20155       907  BUTH      C3              7.7353926146      -13.6370917832      -19.2945287043  BUTH      272             0.0000000000
     20156       907  BUTH      DC3             7.7644620825      -13.5891015761      -19.2763686193  BUTH      272             0.0000000000
     20157       907  BUTH      C4              8.5334818961      -13.5964263840      -18.1922060426  BUTH      272             0.0000000000
     20158       907  BUTH      DC4             8.5186787923      -13.5773262500      -18.1967737131  BUTH      272             0.0000000000
     20159       907  BUTH      O1              7.9855905760      -13.1736623524      -17.1592408627  BUTH      272             0.0000000000
     20160       907  BUTH      DO1             8.0134070877      -13.1973243489      -17.1591246318  BUTH      272             0.0000000000
     20161       907  BUTH      O2              9.5634621459      -14.2873447795      -18.0853730321  BUTH      272             0.0000000000
     20162       907  BUTH      DO2             9.5453505481      -14.2691890524      -18.0920727766  BUTH      272             0.0000000000
     20163       907  BUTH      H1              7.2986516579      -10.8374894005      -19.3596605274  BUTH      272             0.0000000000
     20164       907  BUTH      H2              9.0682981248      -11.1153183323      -19.1429722883  BUTH      272             0.0000000000
     20165       907  BUTH      H3              8.4430556649      -10.4611139805      -20.6923571882  BUTH      272             0.0000000000
     20166       907  BUTH      H4              9.0439580439      -12.9377083608      -20.8156231945  BUTH      272             0.0000000000
     20167       907  BUTH      H5              7.3147094691      -12.6456510783      -21.1865486606  BUTH      272             0.0000000000
     20168       907  BUTH      H6              7.8071727964      -14.6206503480      -19.8061742434  BUTH      272             0.0000000000
     20169       907  BUTH      H7              6.6483782062      -13.5274448078      -19.0927907141  BUTH      272             0.0000000000
     20170       907  BUTH      H8              9.5515146918      -14.4981706748      -17.1386366907  BUTH      272             0.0000000000
     20171       907  BUTH      H9              8.5395128708      -13.2140108298      -16.3651986146  BUTH      272             0.0000000000
     20172       907  BUTH      LPO11           7.6519708903      -13.0913811185      -17.2257818565  BUTH      272             0.0000000000
     20173       907  BUTH      LPO12           8.2137110930      -13.1745382924      -16.8937973425  BUTH      272             0.0000000000
     20174       907  BUTH      LPO21           9.4758166252      -14.5988724718      -18.2186725431  BUTH      272             0.0000000000
     20175       907  BUTH      LPO22           9.8265547556      -14.0566584271      -18.0935023305  BUTH      272             0.0000000000
     20176       908  BUTH      C1              0.9024644330       25.6137522955        7.0191820865  BUTH      273             0.0000000000
     20177       908  BUTH      DC1             0.8966223968       25.6668617493        7.0121894486  BUTH      273             0.0000000000
     20178       908  BUTH      C2             -0.2061501773       26.2076939682        6.1603670281  BUTH      273             0.0000000000
     20179       908  BUTH      DC2            -0.2221691318       26.1552558827        6.1459502616  BUTH      273             0.0000000000
     20180       908  BUTH      C3              0.1642998352       27.5834820193        5.5618164303  BUTH      273             0.0000000000
     20181       908  BUTH      DC3             0.1854432734       27.6021006100        5.5986262226  BUTH      273             0.0000000000
     20182       908  BUTH      C4              0.5908747087       28.5193510034        6.4531384125  BUTH      273             0.0000000000
     20183       908  BUTH      DC4             0.5918174671       28.5128340764        6.4625598699  BUTH      273             0.0000000000
     20184       908  BUTH      O1              1.7971426653       28.8063209142        6.3947106813  BUTH      273             0.0000000000
     20185       908  BUTH      DO1             1.7603628579       28.8409538325        6.4103414614  BUTH      273             0.0000000000
     20186       908  BUTH      O2             -0.1621624974       29.4062073823        6.8933158270  BUTH      273             0.0000000000
     20187       908  BUTH      DO2            -0.1630421827       29.3935432392        6.8914493398  BUTH      273             0.0000000000
     20188       908  BUTH      H1              1.8196689558       25.4389914430        6.4170894772  BUTH      273             0.0000000000
     20189       908  BUTH      H2              1.1764416025       26.2842263886        7.8616320864  BUTH      273             0.0000000000
     20190       908  BUTH      H3              0.5959652240       24.6356336259        7.4477414207  BUTH      273             0.0000000000
     20191       908  BUTH      H4             -1.1372191302       26.3154119165        6.7568806080  BUTH      273             0.0000000000
     20192       908  BUTH      H5             -0.4344726186       25.4985831626        5.3361390679  BUTH      273             0.0000000000
     20193       908  BUTH      H6             -0.7466332031       27.9226277347        5.0237623572  BUTH      273             0.0000000000
     20194       908  BUTH      H7              0.8909555266       27.3622734744        4.7510394656  BUTH      273             0.0000000000
     20195       908  BUTH      H8              0.5059995409       30.0873584095        7.0679376190  BUTH      273             0.0000000000
     20196       908  BUTH      H9              2.0661103264       29.5382603319        6.9699341910  BUTH      273             0.0000000000
     20197       908  BUTH      LPO11           1.9525358704       28.6196269802        6.1427219379  BUTH      273             0.0000000000
     20198       908  BUTH      LPO12           1.8744051237       29.0483633922        6.6354303344  BUTH      273             0.0000000000
     20199       908  BUTH      LPO21          -0.3186094603       29.5403603744        6.6104248188  BUTH      273             0.0000000000
     20200       908  BUTH      LPO22          -0.2387100707       29.3057781788        7.2197426092  BUTH      273             0.0000000000
     20201       909  BUTH      C1              8.6879066730        5.7873953745       15.7990163913  BUTH      274             0.0000000000
     20202       909  BUTH      DC1             8.6953898952        5.7287115241       15.8359811189  BUTH      274             0.0000000000
     20203       909  BUTH      C2              9.0234767454        4.7556753781       16.8676232434  BUTH      274             0.0000000000
     20204       909  BUTH      DC2             9.1060446686        4.7740935873       16.9105698013  BUTH      274             0.0000000000
     20205       909  BUTH      C3              8.3537863278        3.4087548247       16.5523609367  BUTH      274             0.0000000000
     20206       909  BUTH      DC3             8.3500812723        3.4230323823       16.5547780809  BUTH      274             0.0000000000
     20207       909  BUTH      C4              7.0019157314        3.5048410221       16.4139841088  BUTH      274             0.0000000000
     20208       909  BUTH      DC4             7.0343439533        3.5189555255       16.4337431602  BUTH      274             0.0000000000
     20209       909  BUTH      O1              6.5836843217        3.2700300492       15.2779952344  BUTH      274             0.0000000000
     20210       909  BUTH      DO1             6.5680564247        3.2584761533       15.3489625662  BUTH      274             0.0000000000
     20211       909  BUTH      O2              6.2479099197        3.1870746395       17.3311397150  BUTH      274             0.0000000000
     20212       909  BUTH      DO2             6.2691695527        3.1982484926       17.3438124062  BUTH      274             0.0000000000
     20213       909  BUTH      H1              8.9415782683        5.4310509603       14.7777473864  BUTH      274             0.0000000000
     20214       909  BUTH      H2              7.5977303240        6.0010576047       15.7854155999  BUTH      274             0.0000000000
     20215       909  BUTH      H3              9.2188464434        6.7484443452       15.9687480515  BUTH      274             0.0000000000
     20216       909  BUTH      H4              8.6662839974        5.1227102551       17.8535338588  BUTH      274             0.0000000000
     20217       909  BUTH      H5             10.1239753726        4.6238076759       16.9440083246  BUTH      274             0.0000000000
     20218       909  BUTH      H6              8.6408897741        2.7149029565       17.3711784979  BUTH      274             0.0000000000
     20219       909  BUTH      H7              8.8770758042        3.0123687576       15.6560533947  BUTH      274             0.0000000000
     20220       909  BUTH      H8              5.5601485518        2.7911209088       16.7733718923  BUTH      274             0.0000000000
     20221       909  BUTH      H9              5.6179261824        3.2470076943       15.2022180118  BUTH      274             0.0000000000
     20222       909  BUTH      LPO11           6.8509725016        3.1930068684       15.0655700510  BUTH      274             0.0000000000
     20223       909  BUTH      LPO12           6.2351935916        3.3014630391       15.2698602407  BUTH      274             0.0000000000
     20224       909  BUTH      LPO21           6.3925553831        2.9015588350       17.4727674498  BUTH      274             0.0000000000
     20225       909  BUTH      LPO22           6.0925373157        3.4852515311       17.4283502870  BUTH      274             0.0000000000
     20226       910  BUTH      C1            -18.1281896327      -15.8458149190       17.5658861689  BUTH      275             0.0000000000
     20227       910  BUTH      DC1           -18.0996573842      -15.8205928859       17.5722744909  BUTH      275             0.0000000000
     20228       910  BUTH      C2            -17.4332342217      -15.6551254994       18.9097849865  BUTH      275             0.0000000000
     20229       910  BUTH      DC2           -17.4938804410      -15.6905060938       18.9481090059  BUTH      275             0.0000000000
     20230       910  BUTH      C3            -16.5276508307      -14.4013741976       18.9555363848  BUTH      275             0.0000000000
     20231       910  BUTH      DC3           -16.5258855912      -14.4225331170       18.9139080254  BUTH      275             0.0000000000
     20232       910  BUTH      C4            -15.6256209027      -14.2766540791       17.9421225639  BUTH      275             0.0000000000
     20233       910  BUTH      DC4           -15.6400099586      -14.2867545864       17.9401423632  BUTH      275             0.0000000000
     20234       910  BUTH      O1            -15.8540977388      -13.3653123432       17.1326149730  BUTH      275             0.0000000000
     20235       910  BUTH      DO1           -15.8033022436      -13.3829617176       17.1459575678  BUTH      275             0.0000000000
     20236       910  BUTH      O2            -14.4423018872      -14.6028544393       18.0682733431  BUTH      275             0.0000000000
     20237       910  BUTH      DO2           -14.4583180460      -14.6105179360       18.0632565082  BUTH      275             0.0000000000
     20238       910  BUTH      H1            -18.7708386582      -14.9727890332       17.3226804253  BUTH      275             0.0000000000
     20239       910  BUTH      H2            -17.3905450237      -15.9619687629       16.7432624910  BUTH      275             0.0000000000
     20240       910  BUTH      H3            -18.7681002422      -16.7540054986       17.5709144463  BUTH      275             0.0000000000
     20241       910  BUTH      H4            -16.8125010184      -16.5512873442       19.1240400640  BUTH      275             0.0000000000
     20242       910  BUTH      H5            -18.1934844914      -15.5856155554       19.7169459963  BUTH      275             0.0000000000
     20243       910  BUTH      H6            -16.0106778108      -14.4280270366       19.9385671691  BUTH      275             0.0000000000
     20244       910  BUTH      H7            -17.2222901761      -13.5397135232       19.0521700449  BUTH      275             0.0000000000
     20245       910  BUTH      H8            -14.0469322363      -13.8984559760       17.5312392249  BUTH      275             0.0000000000
     20246       910  BUTH      H9            -15.1554810610      -13.2275840482       16.4754037016  BUTH      275             0.0000000000
     20247       910  BUTH      LPO11         -16.1463686493      -13.1953298177       17.2230785341  BUTH      275             0.0000000000
     20248       910  BUTH      LPO12         -15.6059337715      -13.3593623806       16.8858777782  BUTH      275             0.0000000000
     20249       910  BUTH      LPO21         -14.3535999712      -14.4972658937       18.3899611251  BUTH      275             0.0000000000
     20250       910  BUTH      LPO22         -14.4015269213      -14.8777923468       17.8555609806  BUTH      275             0.0000000000
     20251       911  BUTH      C1             -4.4057651197      -20.5898428441      -23.5610501089  BUTH      276             0.0000000000
     20252       911  BUTH      DC1            -4.4485542870      -20.4735612222      -23.5347883778  BUTH      276             0.0000000000
     20253       911  BUTH      C2             -4.4288528989      -19.1329479872      -23.1259951268  BUTH      276             0.0000000000
     20254       911  BUTH      DC2            -4.3957873370      -19.0849105604      -23.0485974832  BUTH      276             0.0000000000
     20255       911  BUTH      C3             -5.7076416906      -18.4469655315      -23.6298523985  BUTH      276             0.0000000000
     20256       911  BUTH      DC3            -5.7157679452      -18.4356297070      -23.6650216992  BUTH      276             0.0000000000
     20257       911  BUTH      C4             -5.9030798696      -18.6136964284      -24.9671241849  BUTH      276             0.0000000000
     20258       911  BUTH      DC4            -5.8979465476      -18.5924407838      -24.9580995495  BUTH      276             0.0000000000
     20259       911  BUTH      O1             -7.0146168520      -19.0642297313      -25.2704346101  BUTH      276             0.0000000000
     20260       911  BUTH      DO1            -6.9838800402      -18.9963516052      -25.3066435207  BUTH      276             0.0000000000
     20261       911  BUTH      O2             -5.5648010902      -17.7304671699      -25.7370777396  BUTH      276             0.0000000000
     20262       911  BUTH      DO2            -5.5680746496      -17.7062930083      -25.7197495354  BUTH      276             0.0000000000
     20263       911  BUTH      H1             -5.2914924661      -21.1476293768      -23.1886494486  BUTH      276             0.0000000000
     20264       911  BUTH      H2             -4.3953814683      -20.7035057873      -24.6661717843  BUTH      276             0.0000000000
     20265       911  BUTH      H3             -3.5037300287      -21.1186975379      -23.1855951741  BUTH      276             0.0000000000
     20266       911  BUTH      H4             -3.5379942409      -18.6227870200      -23.5507628769  BUTH      276             0.0000000000
     20267       911  BUTH      H5             -4.3681742254      -19.0556220125      -22.0193516467  BUTH      276             0.0000000000
     20268       911  BUTH      H6             -5.6034499148      -17.3796010627      -23.3396831965  BUTH      276             0.0000000000
     20269       911  BUTH      H7             -6.5308110882      -18.8265818358      -22.9875093404  BUTH      276             0.0000000000
     20270       911  BUTH      H8             -6.2120973133      -17.9772373162      -26.4160564538  BUTH      276             0.0000000000
     20271       911  BUTH      H9             -7.1838262469      -19.1173344976      -26.2230673118  BUTH      276             0.0000000000
     20272       911  BUTH      LPO11          -7.2048262031      -19.1181020151      -24.9816125545  BUTH      276             0.0000000000
     20273       911  BUTH      LPO12          -7.0395162718      -19.0975463279      -25.6179544272  BUTH      276             0.0000000000
     20274       911  BUTH      LPO21          -5.7063925908      -17.4374652355      -25.6082301031  BUTH      276             0.0000000000
     20275       911  BUTH      LPO22          -5.2661304390      -17.8433718551      -25.8804247805  BUTH      276             0.0000000000
     20276       912  BUTH      C1             -3.1229875081        2.9656791196       15.5378013585  BUTH      277             0.0000000000
     20277       912  BUTH      DC1            -3.1075184703        2.9885140150       15.5154070109  BUTH      277             0.0000000000
     20278       912  BUTH      C2             -4.2772006784        2.5327377317       14.6343345637  BUTH      277             0.0000000000
     20279       912  BUTH      DC2            -4.2116102663        2.4655376800       14.5875576641  BUTH      277             0.0000000000
     20280       912  BUTH      C3             -5.3110663799        3.6617549040       14.4070284529  BUTH      277             0.0000000000
     20281       912  BUTH      DC3            -5.2845270603        3.6473494414       14.4363211430  BUTH      277             0.0000000000
     20282       912  BUTH      C4             -5.8447875144        4.2689282481       15.5177685683  BUTH      277             0.0000000000
     20283       912  BUTH      DC4            -5.8184615165        4.2952020942       15.4794884897  BUTH      277             0.0000000000
     20284       912  BUTH      O1             -5.3391188444        5.3989344959       15.7195756296  BUTH      277             0.0000000000
     20285       912  BUTH      DO1            -5.3563768371        5.4127783479       15.7226494573  BUTH      277             0.0000000000
     20286       912  BUTH      O2             -7.0833454813        4.1187827442       15.7660133839  BUTH      277             0.0000000000
     20287       912  BUTH      DO2            -7.0584260630        4.1415166814       15.7189878861  BUTH      277             0.0000000000
     20288       912  BUTH      H1             -2.5018307909        3.7483975216       15.0521705966  BUTH      277             0.0000000000
     20289       912  BUTH      H2             -3.5156840489        3.3954778597       16.4840484034  BUTH      277             0.0000000000
     20290       912  BUTH      H3             -2.4848024154        2.1012326743       15.8202427348  BUTH      277             0.0000000000
     20291       912  BUTH      H4             -4.8080128552        1.6771062070       15.1038599911  BUTH      277             0.0000000000
     20292       912  BUTH      H5             -3.8897463604        2.1867685155       13.6522421784  BUTH      277             0.0000000000
     20293       912  BUTH      H6             -6.1077900134        3.1932950221       13.7905077384  BUTH      277             0.0000000000
     20294       912  BUTH      H7             -4.8175485032        4.3564734799       13.6941980342  BUTH      277             0.0000000000
     20295       912  BUTH      H8             -7.1827321100        4.3352667774       16.7063095933  BUTH      277             0.0000000000
     20296       912  BUTH      H9             -5.8092340940        5.9410184123       16.3708034543  BUTH      277             0.0000000000
     20297       912  BUTH      LPO11          -5.1001510634        5.4688071006       15.4735833151  BUTH      277             0.0000000000
     20298       912  BUTH      LPO12          -5.4815695086        5.5447464912       16.0040869128  BUTH      277             0.0000000000
     20299       912  BUTH      LPO21          -7.2358342507        4.4019280397       15.6278977915  BUTH      277             0.0000000000
     20300       912  BUTH      LPO22          -7.1281449499        3.7721424389       15.7842755393  BUTH      277             0.0000000000
     20301       913  BUTH      C1             23.4350590765       16.1561639276        2.7146080475  BUTH      278             0.0000000000
     20302       913  BUTH      DC1            23.4058251739       16.1755335202        2.6982842720  BUTH      278             0.0000000000
     20303       913  BUTH      C2             22.0412067342       16.6529103332        3.0826845570  BUTH      278             0.0000000000
     20304       913  BUTH      DC2            22.0150809723       16.5906478425        3.1322914363  BUTH      278             0.0000000000
     20305       913  BUTH      C3             21.4952458303       17.7326925614        2.1185228630  BUTH      278             0.0000000000
     20306       913  BUTH      DC3            21.5258726943       17.7181646498        2.1075793351  BUTH      278             0.0000000000
     20307       913  BUTH      C4             22.2965006247       18.7504259886        1.6791754872  BUTH      278             0.0000000000
     20308       913  BUTH      DC4            22.2768682276       18.7221252392        1.6679571005  BUTH      278             0.0000000000
     20309       913  BUTH      O1             22.7280701969       18.5639359527        0.5246598133  BUTH      278             0.0000000000
     20310       913  BUTH      DO1            22.7059059864       18.6135289122        0.5292760908  BUTH      278             0.0000000000
     20311       913  BUTH      O2             21.9814905053       19.9247542221        1.8922526682  BUTH      278             0.0000000000
     20312       913  BUTH      DO2            21.9747000218       19.9118959676        1.8879825585  BUTH      278             0.0000000000
     20313       913  BUTH      H1             23.4495262930       15.6623132887        1.7195084311  BUTH      278             0.0000000000
     20314       913  BUTH      H2             24.1578983185       16.9990562213        2.6777704119  BUTH      278             0.0000000000
     20315       913  BUTH      H3             23.8084814314       15.4234570462        3.4616136512  BUTH      278             0.0000000000
     20316       913  BUTH      H4             22.0729870542       17.0857633547        4.1054011715  BUTH      278             0.0000000000
     20317       913  BUTH      H5             21.3306911475       15.7996072722        3.1195964415  BUTH      278             0.0000000000
     20318       913  BUTH      H6             20.5641795266       18.1057577794        2.5962873270  BUTH      278             0.0000000000
     20319       913  BUTH      H7             21.1065556176       17.1422951262        1.2613928920  BUTH      278             0.0000000000
     20320       913  BUTH      H8             22.3921275566       20.3013683655        1.0982507795  BUTH      278             0.0000000000
     20321       913  BUTH      H9             23.1681221072       19.3318764467        0.1302200665  BUTH      278             0.0000000000
     20322       913  BUTH      LPO11          22.6084528791       18.2596092970        0.3998520253  BUTH      278             0.0000000000
     20323       913  BUTH      LPO12          22.9305740145       18.8324456571        0.4277333334  BUTH      278             0.0000000000
     20324       913  BUTH      LPO21          21.6424285307       19.9444773244        1.8077069610  BUTH      278             0.0000000000
     20325       913  BUTH      LPO22          22.2028097602       20.0344673394        2.1402059285  BUTH      278             0.0000000000
     20326       914  BUTH      C1             -6.0036526834       28.1686263234       -6.1103618551  BUTH      279             0.0000000000
     20327       914  BUTH      DC1            -6.0123844420       28.1890597867       -6.1048102903  BUTH      279             0.0000000000
     20328       914  BUTH      C2             -7.3067038338       28.9730712027       -6.1362129961  BUTH      279             0.0000000000
     20329       914  BUTH      DC2            -7.2841573881       29.0056878879       -6.2190648445  BUTH      279             0.0000000000
     20330       914  BUTH      C3             -7.7980186353       29.4207320544       -4.7330386821  BUTH      279             0.0000000000
     20331       914  BUTH      DC3            -7.7772348730       29.4034377033       -4.7530539343  BUTH      279             0.0000000000
     20332       914  BUTH      C4             -8.0175176688       28.4862401341       -3.7563347319  BUTH      279             0.0000000000
     20333       914  BUTH      DC4            -8.0025927082       28.5195705854       -3.7798219864  BUTH      279             0.0000000000
     20334       914  BUTH      O1             -7.0653787199       28.3764964495       -2.9674392068  BUTH      279             0.0000000000
     20335       914  BUTH      DO1            -7.1053567295       28.3797308465       -2.9671177177  BUTH      279             0.0000000000
     20336       914  BUTH      O2             -9.1766959007       28.3040407661       -3.3004372341  BUTH      279             0.0000000000
     20337       914  BUTH      DO2            -9.1606698650       28.3376630706       -3.3146155551  BUTH      279             0.0000000000
     20338       914  BUTH      H1             -5.1324043708       28.8054217465       -5.8462804911  BUTH      279             0.0000000000
     20339       914  BUTH      H2             -6.0382230769       27.3638838252       -5.3451720740  BUTH      279             0.0000000000
     20340       914  BUTH      H3             -5.8097661225       27.6852396106       -7.0917212632  BUTH      279             0.0000000000
     20341       914  BUTH      H4             -8.1126536005       28.3741006744       -6.6116078641  BUTH      279             0.0000000000
     20342       914  BUTH      H5             -7.1735565544       29.8691466548       -6.7793627346  BUTH      279             0.0000000000
     20343       914  BUTH      H6             -8.7291713276       29.9946022035       -4.9278429836  BUTH      279             0.0000000000
     20344       914  BUTH      H7             -7.0623543086       30.1956943137       -4.4288142664  BUTH      279             0.0000000000
     20345       914  BUTH      H8             -9.0454789263       27.5270495722       -2.7347811635  BUTH      279             0.0000000000
     20346       914  BUTH      H9             -7.2337291893       27.7934888675       -2.2119782355  BUTH      279             0.0000000000
     20347       914  BUTH      LPO11          -6.8092458341       28.5973769163       -3.0574823309  BUTH      279             0.0000000000
     20348       914  BUTH      LPO12          -7.1378775657       28.1344502945       -2.7252459448  BUTH      279             0.0000000000
     20349       914  BUTH      LPO21          -9.2160053123       28.5508008871       -3.0553572210  BUTH      279             0.0000000000
     20350       914  BUTH      LPO22          -9.3541686225       28.1572037078       -3.5639563251  BUTH      279             0.0000000000
     20351       915  BUTH      C1            -20.2010651668       15.1946122732       11.8803085728  BUTH      280             0.0000000000
     20352       915  BUTH      DC1           -20.1776507268       15.1859158552       11.9134613262  BUTH      280             0.0000000000
     20353       915  BUTH      C2            -20.2005282868       16.2918765714       12.9411760227  BUTH      280             0.0000000000
     20354       915  BUTH      DC2           -20.2557530072       16.3263989602       12.9118738836  BUTH      280             0.0000000000
     20355       915  BUTH      C3            -18.8385038432       16.4391861011       13.6572309635  BUTH      280             0.0000000000
     20356       915  BUTH      DC3           -18.8385395489       16.4056366080       13.6486682747  BUTH      280             0.0000000000
     20357       915  BUTH      C4            -18.2622489803       15.2793791176       14.0883700568  BUTH      280             0.0000000000
     20358       915  BUTH      DC4           -18.2765407710       15.2864209542       14.0769715611  BUTH      280             0.0000000000
     20359       915  BUTH      O1            -17.2851022508       14.9530771553       13.4114819574  BUTH      280             0.0000000000
     20360       915  BUTH      DO1           -17.2949981855       14.9513869318       13.4550846186  BUTH      280             0.0000000000
     20361       915  BUTH      O2            -18.2844388583       14.8972214422       15.2854329097  BUTH      280             0.0000000000
     20362       915  BUTH      DO2           -18.3060363204       14.9124578629       15.2706013949  BUTH      280             0.0000000000
     20363       915  BUTH      H1            -19.4132827101       15.3795889647       11.1190573491  BUTH      280             0.0000000000
     20364       915  BUTH      H2            -20.0093701191       14.1970492578       12.3302441670  BUTH      280             0.0000000000
     20365       915  BUTH      H3            -21.1784324287       15.1528381046       11.3536880692  BUTH      280             0.0000000000
     20366       915  BUTH      H4            -20.9820755922       16.0640746302       13.6972256807  BUTH      280             0.0000000000
     20367       915  BUTH      H5            -20.4653671055       17.2627734764       12.4704950268  BUTH      280             0.0000000000
     20368       915  BUTH      H6            -19.0005589307       17.1636534146       14.4837938832  BUTH      280             0.0000000000
     20369       915  BUTH      H7            -18.2132608869       17.0074343783       12.9357837087  BUTH      280             0.0000000000
     20370       915  BUTH      H8            -17.4437716963       14.4183991719       15.3554897152  BUTH      280             0.0000000000
     20371       915  BUTH      H9            -16.8026950264       14.1873119196       13.7576724737  BUTH      280             0.0000000000
     20372       915  BUTH      LPO11         -17.2315967659       15.1879029696       13.1575252682  BUTH      280             0.0000000000
     20373       915  BUTH      LPO12         -17.1488218176       14.6548754776       13.5339703362  BUTH      280             0.0000000000
     20374       915  BUTH      LPO21         -18.2064737077       15.1830875193       15.4717176951  BUTH      280             0.0000000000
     20375       915  BUTH      LPO22         -18.5076092720       14.6276224956       15.2888055088  BUTH      280             0.0000000000
     20376       916  BUTH      C1             17.7299664526      -16.0502546434       25.1848164718  BUTH      281             0.0000000000
     20377       916  BUTH      DC1            17.7679782076      -16.0954990573       25.1513316783  BUTH      281             0.0000000000
     20378       916  BUTH      C2             19.2173287673      -15.7474636360       25.3001006428  BUTH      281             0.0000000000
     20379       916  BUTH      DC2            19.2314013201      -15.7025791146       25.2999238073  BUTH      281             0.0000000000
     20380       916  BUTH      C3             20.1001317540      -16.8634544327       24.7104719909  BUTH      281             0.0000000000
     20381       916  BUTH      DC3            20.0859724593      -16.9005625435       24.7115689808  BUTH      281             0.0000000000
     20382       916  BUTH      C4             19.7602708959      -18.1656630142       24.9398776548  BUTH      281             0.0000000000
     20383       916  BUTH      DC4            19.7477407199      -18.1604229711       24.9397110966  BUTH      281             0.0000000000
     20384       916  BUTH      O1             19.2043476152      -18.7398127959       23.9906254902  BUTH      281             0.0000000000
     20385       916  BUTH      DO1            19.2304710359      -18.7568902257       24.0192998416  BUTH      281             0.0000000000
     20386       916  BUTH      O2             20.4513719953      -18.8796011968       25.6772936932  BUTH      281             0.0000000000
     20387       916  BUTH      DO2            20.4449023199      -18.8565176425       25.6752235529  BUTH      281             0.0000000000
     20388       916  BUTH      H1             17.3811036912      -16.0759653643       24.1303238294  BUTH      281             0.0000000000
     20389       916  BUTH      H2             17.4826246360      -17.0404932780       25.6236449945  BUTH      281             0.0000000000
     20390       916  BUTH      H3             17.1298096704      -15.2774888201       25.7110918944  BUTH      281             0.0000000000
     20391       916  BUTH      H4             19.4901165925      -15.6108593136       26.3683922991  BUTH      281             0.0000000000
     20392       916  BUTH      H5             19.4308340171      -14.7774649777       24.8022662213  BUTH      281             0.0000000000
     20393       916  BUTH      H6             21.1417645323      -16.6377359469       25.0241172050  BUTH      281             0.0000000000
     20394       916  BUTH      H7             20.1101878503      -16.5752633773       23.6375480457  BUTH      281             0.0000000000
     20395       916  BUTH      H8             20.3735774746      -19.7327028817       25.2222491594  BUTH      281             0.0000000000
     20396       916  BUTH      H9             19.0782323079      -19.6928243656       24.1123829430  BUTH      281             0.0000000000
     20397       916  BUTH      LPO11          19.1720894998      -18.5200680694       23.7201228670  BUTH      281             0.0000000000
     20398       916  BUTH      LPO12          19.1293463009      -19.0703335599       24.0779800975  BUTH      281             0.0000000000
     20399       916  BUTH      LPO21          20.7818301344      -18.7962509441       25.5976058416  BUTH      281             0.0000000000
     20400       916  BUTH      LPO22          20.2500354024      -18.9395815589       25.9572328519  BUTH      281             0.0000000000
     20401       917  BUTH      C1             -6.8157292718       19.0240786460      -26.1235855141  BUTH      282             0.0000000000
     20402       917  BUTH      DC1            -6.7918765195       19.0810642099      -26.1012013402  BUTH      282             0.0000000000
     20403       917  BUTH      C2             -7.4893004153       19.9585358267      -25.1331042958  BUTH      282             0.0000000000
     20404       917  BUTH      DC2            -7.5631706589       19.9275814845      -25.1279498487  BUTH      282             0.0000000000
     20405       917  BUTH      C3             -6.8495482012       21.3543248192      -25.1875480766  BUTH      282             0.0000000000
     20406       917  BUTH      DC3            -6.7929393836       21.3201606061      -25.1802202841  BUTH      282             0.0000000000
     20407       917  BUTH      C4             -5.5214706213       21.3199271862      -24.9058344575  BUTH      282             0.0000000000
     20408       917  BUTH      DC4            -5.5055908337       21.3169941642      -24.9151980091  BUTH      282             0.0000000000
     20409       917  BUTH      O1             -4.7676653151       21.7085232096      -25.8057429556  BUTH      282             0.0000000000
     20410       917  BUTH      DO1            -4.7276135628       21.7271234840      -25.7489261710  BUTH      282             0.0000000000
     20411       917  BUTH      O2             -5.0630928449       21.5010536507      -23.7936419493  BUTH      282             0.0000000000
     20412       917  BUTH      DO2            -5.0596454334       21.5082406024      -23.8058690365  BUTH      282             0.0000000000
     20413       917  BUTH      H1             -6.8267862030       19.4491633479      -27.1499878429  BUTH      282             0.0000000000
     20414       917  BUTH      H2             -5.7568952330       18.8391101801      -25.8425550096  BUTH      282             0.0000000000
     20415       917  BUTH      H3             -7.3338591243       18.0423708331      -26.1695444480  BUTH      282             0.0000000000
     20416       917  BUTH      H4             -7.3850193446       19.5455966849      -24.1069816308  BUTH      282             0.0000000000
     20417       917  BUTH      H5             -8.5736373695       20.0332300602      -25.3632241386  BUTH      282             0.0000000000
     20418       917  BUTH      H6             -7.4229300706       21.9953367974      -24.4842288908  BUTH      282             0.0000000000
     20419       917  BUTH      H7             -7.1126624727       21.7742877676      -26.1818935911  BUTH      282             0.0000000000
     20420       917  BUTH      H8             -4.2288744342       21.8966856920      -24.0910556868  BUTH      282             0.0000000000
     20421       917  BUTH      H9             -3.8362694056       21.7852131446      -25.5496544678  BUTH      282             0.0000000000
     20422       917  BUTH      LPO11          -4.9548459557       21.8056511550      -26.0850806903  BUTH      282             0.0000000000
     20423       917  BUTH      LPO12          -4.4345373977       21.6866329030      -25.7006401242  BUTH      282             0.0000000000
     20424       917  BUTH      LPO21          -5.2320183215       21.7818675953      -23.6707285168  BUTH      282             0.0000000000
     20425       917  BUTH      LPO22          -4.9551909732       21.1854113711      -23.6876837625  BUTH      282             0.0000000000
     20426       918  BUTH      C1             20.3661388990      -22.6681110120      -10.4136775100  BUTH      283             0.0000000000
     20427       918  BUTH      DC1            20.3569828904      -22.6952631478      -10.4364084062  BUTH      283             0.0000000000
     20428       918  BUTH      C2             19.2244798365      -21.7431196907      -10.8244539885  BUTH      283             0.0000000000
     20429       918  BUTH      DC2            19.2265173422      -21.7416216316      -10.7716936005  BUTH      283             0.0000000000
     20430       918  BUTH      C3             18.1919662335      -22.4357110421      -11.7423873179  BUTH      283             0.0000000000
     20431       918  BUTH      DC3            18.2053263711      -22.4640566973      -11.7659196919  BUTH      283             0.0000000000
     20432       918  BUTH      C4             18.7063527206      -23.0368983135      -12.8545466939  BUTH      283             0.0000000000
     20433       918  BUTH      DC4            18.7045242144      -23.0485206239      -12.8411084800  BUTH      283             0.0000000000
     20434       918  BUTH      O1             18.6028165242      -24.2766471414      -12.8474812555  BUTH      283             0.0000000000
     20435       918  BUTH      DO1            18.5874295710      -24.2600759996      -12.8887365489  BUTH      283             0.0000000000
     20436       918  BUTH      O2             18.6248883585      -22.4959670745      -13.9723352823  BUTH      283             0.0000000000
     20437       918  BUTH      DO2            18.6155120961      -22.5018288759      -13.9527828791  BUTH      283             0.0000000000
     20438       918  BUTH      H1             19.9855939516      -23.5528069246       -9.8597644415  BUTH      283             0.0000000000
     20439       918  BUTH      H2             20.9194360971      -23.0352119160      -11.3044188517  BUTH      283             0.0000000000
     20440       918  BUTH      H3             21.0865866571      -22.1286704253       -9.7623098094  BUTH      283             0.0000000000
     20441       918  BUTH      H4             19.6442647172      -20.8626053170      -11.3562397457  BUTH      283             0.0000000000
     20442       918  BUTH      H5             18.7104905882      -21.3535509636       -9.9198146897  BUTH      283             0.0000000000
     20443       918  BUTH      H6             17.4702069221      -21.6344365734      -12.0094897781  BUTH      283             0.0000000000
     20444       918  BUTH      H7             17.6153410437      -23.1061726424      -11.0698506027  BUTH      283             0.0000000000
     20445       918  BUTH      H8             18.6315835522      -23.2800936636      -14.5432999629  BUTH      283             0.0000000000
     20446       918  BUTH      H9             18.8723233606      -24.7095926959      -13.6714261639  BUTH      283             0.0000000000
     20447       918  BUTH      LPO11          18.4453726674      -24.3819467656      -12.5531626848  BUTH      283             0.0000000000
     20448       918  BUTH      LPO12          18.7403356729      -24.4099272077      -13.1404401395  BUTH      283             0.0000000000
     20449       918  BUTH      LPO21          18.2894112190      -22.4004685381      -14.0012336986  BUTH      283             0.0000000000
     20450       918  BUTH      LPO22          18.9456689575      -22.3705733239      -14.0345945355  BUTH      283             0.0000000000
     20451       919  BUTH      C1            -22.7025974336       18.8262285607       -5.3683288132  BUTH      284             0.0000000000
     20452       919  BUTH      DC1           -22.7423850701       18.8518105625       -5.3950730409  BUTH      284             0.0000000000
     20453       919  BUTH      C2            -22.4989364702       20.3327603219       -5.4862384342  BUTH      284             0.0000000000
     20454       919  BUTH      DC2           -22.4673662683       20.3398430167       -5.4353450021  BUTH      284             0.0000000000
     20455       919  BUTH      C3            -23.7050992521       21.0409720082       -6.1423675494  BUTH      284             0.0000000000
     20456       919  BUTH      DC3           -23.7093785219       21.0147659704       -6.1680381647  BUTH      284             0.0000000000
     20457       919  BUTH      C4            -24.0769201183       20.5498197522       -7.3578644288  BUTH      284             0.0000000000
     20458       919  BUTH      DC4           -24.0791815497       20.5581169531       -7.3495209782  BUTH      284             0.0000000000
     20459       919  BUTH      O1            -25.1522729532       19.9275705408       -7.3738940751  BUTH      284             0.0000000000
     20460       919  BUTH      DO1           -25.1352144784       19.9525951363       -7.4132052016  BUTH      284             0.0000000000
     20461       919  BUTH      O2            -23.7599841719       21.1219439682       -8.4179001502  BUTH      284             0.0000000000
     20462       919  BUTH      DO2           -23.7676170998       21.1417900715       -8.4058676660  BUTH      284             0.0000000000
     20463       919  BUTH      H1            -23.6496975195       18.5876368848       -4.8388040819  BUTH      284             0.0000000000
     20464       919  BUTH      H2            -22.7346705375       18.3465292072       -6.3699179741  BUTH      284             0.0000000000
     20465       919  BUTH      H3            -21.8712747869       18.3589588262       -4.7983440307  BUTH      284             0.0000000000
     20466       919  BUTH      H4            -21.5853750234       20.5287030481       -6.0873481840  BUTH      284             0.0000000000
     20467       919  BUTH      H5            -22.3227324323       20.7625121959       -4.4769879877  BUTH      284             0.0000000000
     20468       919  BUTH      H6            -23.4170147774       22.1122494311       -6.2031377611  BUTH      284             0.0000000000
     20469       919  BUTH      H7            -24.5086812713       21.0174600864       -5.3755402356  BUTH      284             0.0000000000
     20470       919  BUTH      H8            -24.2335944760       20.5406685299       -9.0332960752  BUTH      284             0.0000000000
     20471       919  BUTH      H9            -25.4650841433       19.6841913769       -8.2581320195  BUTH      284             0.0000000000
     20472       919  BUTH      LPO11         -25.2914323844       19.9207588165       -7.0528204806  BUTH      284             0.0000000000
     20473       919  BUTH      LPO12         -25.2203185563       19.8144837862       -7.6980563521  BUTH      284             0.0000000000
     20474       919  BUTH      LPO21         -23.9617019544       21.4076982249       -8.4303275792  BUTH      284             0.0000000000
     20475       919  BUTH      LPO22         -23.4292766618       21.0243845289       -8.4780225133  BUTH      284             0.0000000000
     20476       920  BUTH      C1            -23.8018510575      -26.2785907264        7.7801385252  BUTH      285             0.0000000000
     20477       920  BUTH      DC1           -23.8138427348      -26.2370493822        7.7896151832  BUTH      285             0.0000000000
     20478       920  BUTH      C2            -22.8802340998      -25.9795068524        8.9563961037  BUTH      285             0.0000000000
     20479       920  BUTH      DC2           -22.8676841726      -26.0487153339        8.9512838082  BUTH      285             0.0000000000
     20480       920  BUTH      C3            -23.3736418356      -24.8014197180        9.8256215760  BUTH      285             0.0000000000
     20481       920  BUTH      DC3           -23.3922212100      -24.7964003103        9.7807893037  BUTH      285             0.0000000000
     20482       920  BUTH      C4            -23.6791707565      -23.6532989345        9.1617310301  BUTH      285             0.0000000000
     20483       920  BUTH      DC4           -23.6825885957      -23.6641440048        9.1713964545  BUTH      285             0.0000000000
     20484       920  BUTH      O1            -24.8735489255      -23.3147963422        9.2199140683  BUTH      285             0.0000000000
     20485       920  BUTH      DO1           -24.8404542180      -23.2806845650        9.2191554088  BUTH      285             0.0000000000
     20486       920  BUTH      O2            -22.8599382784      -22.7366849205        8.9882158047  BUTH      285             0.0000000000
     20487       920  BUTH      DO2           -22.8625202437      -22.7401261429        8.9987435306  BUTH      285             0.0000000000
     20488       920  BUTH      H1            -24.8336976245      -26.4994750732        8.1277356602  BUTH      285             0.0000000000
     20489       920  BUTH      H2            -23.8507361284      -25.4137773549        7.0844165378  BUTH      285             0.0000000000
     20490       920  BUTH      H3            -23.4394166937      -27.1585069416        7.2068063474  BUTH      285             0.0000000000
     20491       920  BUTH      H4            -21.8655669864      -25.7353086675        8.5754251132  BUTH      285             0.0000000000
     20492       920  BUTH      H5            -22.7780393961      -26.8860275481        9.5905076653  BUTH      285             0.0000000000
     20493       920  BUTH      H6            -22.5565686614      -24.6279495033       10.5581654406  BUTH      285             0.0000000000
     20494       920  BUTH      H7            -24.2027337895      -25.2115294430       10.4410381386  BUTH      285             0.0000000000
     20495       920  BUTH      H8            -23.4939330088      -22.0673590092        8.6866308144  BUTH      285             0.0000000000
     20496       920  BUTH      H9            -25.0664964123      -22.4602237282        8.8058634484  BUTH      285             0.0000000000
     20497       920  BUTH      LPO11         -25.0545444428      -23.5465554538        9.4097253876  BUTH      285             0.0000000000
     20498       920  BUTH      LPO12         -24.9226427134      -23.0178268742        9.0413113386  BUTH      285             0.0000000000
     20499       920  BUTH      LPO21         -22.7864752491      -22.6184327436        9.3093382205  BUTH      285             0.0000000000
     20500       920  BUTH      LPO22         -22.6982656749      -22.8149252918        8.6878153826  BUTH      285             0.0000000000
     20501       921  BUTH      C1            -16.9288897084       -3.6991167789       -7.9374583952  BUTH      286             0.0000000000
     20502       921  BUTH      DC1           -16.9334612147       -3.6839512756       -7.9655026553  BUTH      286             0.0000000000
     20503       921  BUTH      C2            -15.4704219634       -3.2991435859       -8.0305730228  BUTH      286             0.0000000000
     20504       921  BUTH      DC2           -15.4699037886       -3.3477266020       -7.9692927451  BUTH      286             0.0000000000
     20505       921  BUTH      C3            -15.3281228115       -1.9445862416       -8.7470744629  BUTH      286             0.0000000000
     20506       921  BUTH      DC3           -15.3634870411       -1.9786637648       -8.7832068828  BUTH      286             0.0000000000
     20507       921  BUTH      C4            -15.9136793924       -1.7622363507       -9.9723439847  BUTH      286             0.0000000000
     20508       921  BUTH      DC4           -15.9149952913       -1.7279048454       -9.9572899360  BUTH      286             0.0000000000
     20509       921  BUTH      O1            -16.8422608230       -0.9291794043       -9.9028401968  BUTH      286             0.0000000000
     20510       921  BUTH      DO1           -16.8194178094       -0.9116365981       -9.9146949415  BUTH      286             0.0000000000
     20511       921  BUTH      O2            -15.1494594970       -1.6682274893      -10.9892282893  BUTH      286             0.0000000000
     20512       921  BUTH      DO2           -15.1271529769       -1.6207976896      -10.9420659663  BUTH      286             0.0000000000
     20513       921  BUTH      H1            -17.5053744916       -2.9133704364       -7.4039895761  BUTH      286             0.0000000000
     20514       921  BUTH      H2            -17.3768458075       -3.7952221024       -8.9495947994  BUTH      286             0.0000000000
     20515       921  BUTH      H3            -17.0499607266       -4.6600438072       -7.3931404230  BUTH      286             0.0000000000
     20516       921  BUTH      H4            -14.8810303241       -4.0650810917       -8.5785495125  BUTH      286             0.0000000000
     20517       921  BUTH      H5            -15.0301209030       -3.2124452086       -7.0142367755  BUTH      286             0.0000000000
     20518       921  BUTH      H6            -14.2304647476       -1.7795324753       -8.7942446865  BUTH      286             0.0000000000
     20519       921  BUTH      H7            -15.6664441791       -1.2392370268       -7.9581878187  BUTH      286             0.0000000000
     20520       921  BUTH      H8            -15.6451853689       -2.0353839985      -11.7377948913  BUTH      286             0.0000000000
     20521       921  BUTH      H9            -17.2286492614       -0.6862560193      -10.7576227444  BUTH      286             0.0000000000
     20522       921  BUTH      LPO11         -16.8740820049       -0.8125139905       -9.5743944728  BUTH      286             0.0000000000
     20523       921  BUTH      LPO12         -16.9883730095       -0.8862157069      -10.2179677102  BUTH      286             0.0000000000
     20524       921  BUTH      LPO21         -15.1621408730       -1.3297835552      -11.0775169418  BUTH      286             0.0000000000
     20525       921  BUTH      LPO22         -14.9163162782       -1.9259779760      -10.9478891299  BUTH      286             0.0000000000
     20526       922  BUTH      C1             -2.5595221147       13.9215967488      -12.1598670819  BUTH      287             0.0000000000
     20527       922  BUTH      DC1            -2.6355140285       13.8698218947      -12.1978185624  BUTH      287             0.0000000000
     20528       922  BUTH      C2             -4.0786406503       13.9760274414      -12.0894262025  BUTH      287             0.0000000000
     20529       922  BUTH      DC2            -4.1010371093       14.0208743954      -12.0554287809  BUTH      287             0.0000000000
     20530       922  BUTH      C3             -4.7030572664       12.6075090249      -12.3758429000  BUTH      287             0.0000000000
     20531       922  BUTH      DC3            -4.6762919572       12.5552079934      -12.4403142737  BUTH      287             0.0000000000
     20532       922  BUTH      C4             -4.2612413801       12.0266989404      -13.5180521792  BUTH      287             0.0000000000
     20533       922  BUTH      DC4            -4.2616652732       12.0000843663      -13.5395827331  BUTH      287             0.0000000000
     20534       922  BUTH      O1             -3.5646899038       11.0205666046      -13.3382367840  BUTH      287             0.0000000000
     20535       922  BUTH      DO1            -3.6147646299       11.0040028976      -13.4152240732  BUTH      287             0.0000000000
     20536       922  BUTH      O2             -4.9751939439       11.7915011777      -14.4711034180  BUTH      287             0.0000000000
     20537       922  BUTH      DO2            -5.0069993055       11.7603092968      -14.4819190704  BUTH      287             0.0000000000
     20538       922  BUTH      H1             -2.1464169632       13.1793321547      -11.4438304859  BUTH      287             0.0000000000
     20539       922  BUTH      H2             -2.1876781742       13.6632148925      -13.1744073237  BUTH      287             0.0000000000
     20540       922  BUTH      H3             -2.1009173554       14.8956334997      -11.8855404834  BUTH      287             0.0000000000
     20541       922  BUTH      H4             -4.4885725106       14.6865276908      -12.8387367295  BUTH      287             0.0000000000
     20542       922  BUTH      H5             -4.3980591882       14.3246804400      -11.0840735857  BUTH      287             0.0000000000
     20543       922  BUTH      H6             -5.8017467749       12.7688397222      -12.3415679685  BUTH      287             0.0000000000
     20544       922  BUTH      H7             -4.4644534386       12.0370047628      -11.4528509713  BUTH      287             0.0000000000
     20545       922  BUTH      H8             -4.4207940825       11.0317181223      -14.7083174615  BUTH      287             0.0000000000
     20546       922  BUTH      H9             -3.3710669989       10.5167698454      -14.1430100415  BUTH      287             0.0000000000
     20547       922  BUTH      LPO11          -3.5316240519       10.9575449587      -12.9955489938  BUTH      287             0.0000000000
     20548       922  BUTH      LPO12          -3.4629269148       10.8888350109      -13.6461183867  BUTH      287             0.0000000000
     20549       922  BUTH      LPO21          -5.2599672852       11.6371593413      -14.3385034871  BUTH      287             0.0000000000
     20550       922  BUTH      LPO22          -4.8865832487       12.0269750693      -14.7144143118  BUTH      287             0.0000000000
     20551       923  BUTH      C1              4.8356981367       -5.1516249590      -24.3149757898  BUTH      288             0.0000000000
     20552       923  BUTH      DC1             4.8086275743       -5.1176732723      -24.2901172097  BUTH      288             0.0000000000
     20553       923  BUTH      C2              5.5604223767       -3.9211501216      -23.7909391274  BUTH      288             0.0000000000
     20554       923  BUTH      DC2             5.5921955109       -3.9547570811      -23.7776034377  BUTH      288             0.0000000000
     20555       923  BUTH      C3              4.6097805299       -2.8811697734      -23.1617268856  BUTH      288             0.0000000000
     20556       923  BUTH      DC3             4.5420383400       -2.8750660626      -23.2165719637  BUTH      288             0.0000000000
     20557       923  BUTH      C4              3.5446560847       -2.5315897831      -23.9237763362  BUTH      288             0.0000000000
     20558       923  BUTH      DC4             3.5266114357       -2.5186376626      -23.9457249889  BUTH      288             0.0000000000
     20559       923  BUTH      O1              2.4322219635       -2.7375962734      -23.4187037065  BUTH      288             0.0000000000
     20560       923  BUTH      DO1             2.4322187224       -2.6390457293      -23.4713996127  BUTH      288             0.0000000000
     20561       923  BUTH      O2              3.4925933121       -1.4761698045      -24.5026856842  BUTH      288             0.0000000000
     20562       923  BUTH      DO2             3.4787132961       -1.4512778181      -24.5161973496  BUTH      288             0.0000000000
     20563       923  BUTH      H1              4.3568190921       -5.7130857951      -23.4844593290  BUTH      288             0.0000000000
     20564       923  BUTH      H2              4.0502219106       -4.8831150846      -25.0533866149  BUTH      288             0.0000000000
     20565       923  BUTH      H3              5.5462227822       -5.8416385981      -24.8183215019  BUTH      288             0.0000000000
     20566       923  BUTH      H4              6.1147227153       -3.4395754433      -24.6247004628  BUTH      288             0.0000000000
     20567       923  BUTH      H5              6.3149347876       -4.2221966641      -23.0330453347  BUTH      288             0.0000000000
     20568       923  BUTH      H6              5.2612996826       -2.0069234013      -22.9483327085  BUTH      288             0.0000000000
     20569       923  BUTH      H7              4.3530351420       -3.2828756671      -22.1582154603  BUTH      288             0.0000000000
     20570       923  BUTH      H8              2.5906794394       -1.3533843866      -24.1674617182  BUTH      288             0.0000000000
     20571       923  BUTH      H9              1.6846650873       -2.3824513684      -23.9226797111  BUTH      288             0.0000000000
     20572       923  BUTH      LPO11           2.4694764169       -2.8779256355      -23.1002389897  BUTH      288             0.0000000000
     20573       923  BUTH      LPO12           2.1800047507       -2.6370748629      -23.6395700090  BUTH      288             0.0000000000
     20574       923  BUTH      LPO21           3.6774648761       -1.2526583910      -24.3068154393  BUTH      288             0.0000000000
     20575       923  BUTH      LPO22           3.4383074441       -1.5563752516      -24.8390190468  BUTH      288             0.0000000000
     20576       924  BUTH      C1              6.6468256679       19.2413063340       19.5170174560  BUTH      289             0.0000000000
     20577       924  BUTH      DC1             6.6539718554       19.2704553949       19.5042468820  BUTH      289             0.0000000000
     20578       924  BUTH      C2              5.2361744044       18.8059654066       19.1509727259  BUTH      289             0.0000000000
     20579       924  BUTH      DC2             5.2662169312       18.7518010939       19.1632104447  BUTH      289             0.0000000000
     20580       924  BUTH      C3              4.5977442162       19.7249857805       18.0853619207  BUTH      289             0.0000000000
     20581       924  BUTH      DC3             4.6137030024       19.7601121445       18.1107805017  BUTH      289             0.0000000000
     20582       924  BUTH      C4              4.6791860891       21.0611624080       18.3473930614  BUTH      289             0.0000000000
     20583       924  BUTH      DC4             4.7106658595       21.0587886061       18.3609626384  BUTH      289             0.0000000000
     20584       924  BUTH      O1              5.5094740769       21.6859230807       17.6625881675  BUTH      289             0.0000000000
     20585       924  BUTH      DO1             5.4953518643       21.7034919881       17.6757953423  BUTH      289             0.0000000000
     20586       924  BUTH      O2              3.7399103641       21.6977188980       18.8728672987  BUTH      289             0.0000000000
     20587       924  BUTH      DO2             3.7582186531       21.6911699430       18.8886942307  BUTH      289             0.0000000000
     20588       924  BUTH      H1              7.2638575609       19.3554544538       18.6001953087  BUTH      289             0.0000000000
     20589       924  BUTH      H2              6.6324058932       20.2219667729       20.0389544024  BUTH      289             0.0000000000
     20590       924  BUTH      H3              7.1260216759       18.4926875885       20.1835473956  BUTH      289             0.0000000000
     20591       924  BUTH      H4              4.6164651288       18.8125574363       20.0730562146  BUTH      289             0.0000000000
     20592       924  BUTH      H5              5.2422696801       17.7606592859       18.7746497772  BUTH      289             0.0000000000
     20593       924  BUTH      H6              3.5420648843       19.3916086980       17.9919709709  BUTH      289             0.0000000000
     20594       924  BUTH      H7              5.0481930361       19.4164411927       17.1177787988  BUTH      289             0.0000000000
     20595       924  BUTH      H8              3.4806201869       22.2485375743       18.1177067927  BUTH      289             0.0000000000
     20596       924  BUTH      H9              5.4671525722       22.6483229901       17.7672605359  BUTH      289             0.0000000000
     20597       924  BUTH      LPO11           5.6709320596       21.4676665299       17.4416913639  BUTH      289             0.0000000000
     20598       924  BUTH      LPO12           5.5077511320       22.0243742762       17.7517387130  BUTH      289             0.0000000000
     20599       924  BUTH      LPO21           3.4722178928       21.4724086008       18.8815857159  BUTH      289             0.0000000000
     20600       924  BUTH      LPO22           3.8955215188       21.9371612707       19.0752345854  BUTH      289             0.0000000000
     20601       925  BUTH      C1             19.7731649411       27.9324898197      -26.9062699523  BUTH      290             0.0000000000
     20602       925  BUTH      DC1            19.7530642641       27.8806487723      -26.9454010781  BUTH      290             0.0000000000
     20603       925  BUTH      C2             20.6794219453       27.0498906138      -27.7552562953  BUTH      290             0.0000000000
     20604       925  BUTH      DC2            20.7151787615       27.0881067734      -27.7805530834  BUTH      290             0.0000000000
     20605       925  BUTH      C3             19.8963242529       25.9488998500      -28.5045704393  BUTH      290             0.0000000000
     20606       925  BUTH      DC3            19.8634617940       25.9355907437      -28.4844465745  BUTH      290             0.0000000000
     20607       925  BUTH      C4             19.0748733338       25.1883931253      -27.7242644105  BUTH      290             0.0000000000
     20608       925  BUTH      DC4            19.0664875459       25.1923327202      -27.7360638548  BUTH      290             0.0000000000
     20609       925  BUTH      O1             17.8808974475       25.1907743166      -28.0777769919  BUTH      290             0.0000000000
     20610       925  BUTH      DO1            17.8903017352       25.1438333163      -28.0692351811  BUTH      290             0.0000000000
     20611       925  BUTH      O2             19.4719795775       24.1220492595      -27.2377789233  BUTH      290             0.0000000000
     20612       925  BUTH      DO2            19.4699624340       24.1314594328      -27.2589844374  BUTH      290             0.0000000000
     20613       925  BUTH      H1             19.0068976411       28.4461902842      -27.5253557777  BUTH      290             0.0000000000
     20614       925  BUTH      H2             19.2415072853       27.3396052737      -26.1315770758  BUTH      290             0.0000000000
     20615       925  BUTH      H3             20.3596443651       28.7125563514      -26.3753659202  BUTH      290             0.0000000000
     20616       925  BUTH      H4             21.4328166883       26.5734114215      -27.0921688647  BUTH      290             0.0000000000
     20617       925  BUTH      H5             21.2414817995       27.6732959743      -28.4831130652  BUTH      290             0.0000000000
     20618       925  BUTH      H6             20.6793123617       25.3323630041      -28.9956233296  BUTH      290             0.0000000000
     20619       925  BUTH      H7             19.3923092641       26.4697609814      -29.3465880003  BUTH      290             0.0000000000
     20620       925  BUTH      H8             18.6198566171       23.6988037288      -27.0489676918  BUTH      290             0.0000000000
     20621       925  BUTH      H9             17.3104453474       24.5990356638      -27.5645608890  BUTH      290             0.0000000000
     20622       925  BUTH      LPO11          17.8402519461       25.3926378490      -28.3607947608  BUTH      290             0.0000000000
     20623       925  BUTH      LPO12          17.6919800712       24.9893686101      -27.8627282385  BUTH      290             0.0000000000
     20624       925  BUTH      LPO21          19.5773697974       23.9323293377      -27.5123681672  BUTH      290             0.0000000000
     20625       925  BUTH      LPO22          19.5748310113       24.2045671879      -26.9135685379  BUTH      290             0.0000000000
     20626       926  BUTH      C1             -0.0128837599        5.4790294657       -7.9254859460  BUTH      291             0.0000000000
     20627       926  BUTH      DC1             0.0263448917        5.4111949206       -7.8464969108  BUTH      291             0.0000000000
     20628       926  BUTH      C2              0.7084073232        4.3262104335       -7.2361974699  BUTH      291             0.0000000000
     20629       926  BUTH      DC2             0.7578512665        4.2451020242       -7.2801641527  BUTH      291             0.0000000000
     20630       926  BUTH      C3              0.2605714951        4.1622316282       -5.7720637712  BUTH      291             0.0000000000
     20631       926  BUTH      DC3             0.2663608904        4.1397915674       -5.7795127732  BUTH      291             0.0000000000
     20632       926  BUTH      C4              0.2444659793        5.2999405519       -5.0196515592  BUTH      291             0.0000000000
     20633       926  BUTH      DC4             0.2691193074        5.2739222859       -5.0658122455  BUTH      291             0.0000000000
     20634       926  BUTH      O1             -0.8993374987        5.6014361435       -4.6660493655  BUTH      291             0.0000000000
     20635       926  BUTH      DO1            -0.8441343857        5.5861122646       -4.6677848618  BUTH      291             0.0000000000
     20636       926  BUTH      O2              1.1989991720        5.5716488157       -4.2424067500  BUTH      291             0.0000000000
     20637       926  BUTH      DO2             1.2360191664        5.5597837342       -4.2771775294  BUTH      291             0.0000000000
     20638       926  BUTH      H1             -1.1167779728        5.3624729507       -7.8790839418  BUTH      291             0.0000000000
     20639       926  BUTH      H2              0.2166421009        6.4639073849       -7.4654268566  BUTH      291             0.0000000000
     20640       926  BUTH      H3              0.2595257999        5.5572837207       -8.9997253529  BUTH      291             0.0000000000
     20641       926  BUTH      H4              1.8028293553        4.5162867259       -7.2569921782  BUTH      291             0.0000000000
     20642       926  BUTH      H5              0.5144895031        3.3906160004       -7.8031012852  BUTH      291             0.0000000000
     20643       926  BUTH      H6              0.9280753399        3.4022574656       -5.3124999654  BUTH      291             0.0000000000
     20644       926  BUTH      H7             -0.7276423907        3.6594758985       -5.8427107264  BUTH      291             0.0000000000
     20645       926  BUTH      H8              0.6598667526        5.7739654469       -3.4618273401  BUTH      291             0.0000000000
     20646       926  BUTH      H9             -0.9336872324        6.3497209990       -4.0513536107  BUTH      291             0.0000000000
     20647       926  BUTH      LPO11          -1.1283985177        5.3673244249       -4.7894298858  BUTH      291             0.0000000000
     20648       926  BUTH      LPO12          -0.8920844963        5.8940143212       -4.4740977989  BUTH      291             0.0000000000
     20649       926  BUTH      LPO21           1.3334354328        5.2617946549       -4.1506609554  BUTH      291             0.0000000000
     20650       926  BUTH      LPO22           1.3037184733        5.8926134920       -4.3346864581  BUTH      291             0.0000000000
     20651       927  BUTH      C1              7.5143210175       15.4409955393       -8.5242462585  BUTH      292             0.0000000000
     20652       927  BUTH      DC1             7.5225808406       15.4136678043       -8.4899891351  BUTH      292             0.0000000000
     20653       927  BUTH      C2              7.6388440100       15.5036604041       -7.0058830435  BUTH      292             0.0000000000
     20654       927  BUTH      DC2             7.6588702214       15.5911219360       -7.0074594555  BUTH      292             0.0000000000
     20655       927  BUTH      C3              7.9770917048       14.1339510040       -6.3780076295  BUTH      292             0.0000000000
     20656       927  BUTH      DC3             7.9546732187       14.1311905584       -6.4160687246  BUTH      292             0.0000000000
     20657       927  BUTH      C4              7.1920488743       13.1042164339       -6.8039622398  BUTH      292             0.0000000000
     20658       927  BUTH      DC4             7.2147524763       13.1105715464       -6.8076993767  BUTH      292             0.0000000000
     20659       927  BUTH      O1              7.8122730145       12.1502607722       -7.3074777740  BUTH      292             0.0000000000
     20660       927  BUTH      DO1             7.7849915788       12.1384131216       -7.2778217557  BUTH      292             0.0000000000
     20661       927  BUTH      O2              6.1050138015       12.8619174814       -6.2662035321  BUTH      292             0.0000000000
     20662       927  BUTH      DO2             6.1284472367       12.8744028911       -6.2750645395  BUTH      292             0.0000000000
     20663       927  BUTH      H1              8.4493784953       15.0628020860       -8.9900340063  BUTH      292             0.0000000000
     20664       927  BUTH      H2              6.6875475986       14.7658803199       -8.8324444979  BUTH      292             0.0000000000
     20665       927  BUTH      H3              7.2999517298       16.4419375391       -8.9560817845  BUTH      292             0.0000000000
     20666       927  BUTH      H4              6.6705955524       15.8464194485       -6.5824067610  BUTH      292             0.0000000000
     20667       927  BUTH      H5              8.4106709423       16.2452332403       -6.7081013853  BUTH      292             0.0000000000
     20668       927  BUTH      H6              7.8866710535       14.2839105146       -5.2808944851  BUTH      292             0.0000000000
     20669       927  BUTH      H7              9.0662667257       13.9858312008       -6.5394984893  BUTH      292             0.0000000000
     20670       927  BUTH      H8              6.0190004126       11.9100882957       -6.4321037981  BUTH      292             0.0000000000
     20671       927  BUTH      H9              7.2523594214       11.4042961418       -7.5701458908  BUTH      292             0.0000000000
     20672       927  BUTH      LPO11           8.1560560308       12.2158486313       -7.3040909703  BUTH      292             0.0000000000
     20673       927  BUTH      LPO12           7.5878282386       11.9011208991       -7.4077467432  BUTH      292             0.0000000000
     20674       927  BUTH      LPO21           6.1746323997       12.8586178387       -5.9232132069  BUTH      292             0.0000000000
     20675       927  BUTH      LPO22           5.8659568935       12.9853160245       -6.4900887578  BUTH      292             0.0000000000
     20676       928  BUTH      C1             15.4971250369      -24.8199227245       20.4335582217  BUTH      293             0.0000000000
     20677       928  BUTH      DC1            15.4652656218      -24.8123612140       20.4196503158  BUTH      293             0.0000000000
     20678       928  BUTH      C2             15.2389487357      -23.3396593851       20.6941209836  BUTH      293             0.0000000000
     20679       928  BUTH      DC2            15.2399601113      -23.3555321935       20.7505706401  BUTH      293             0.0000000000
     20680       928  BUTH      C3             13.9893713848      -22.8070884607       19.9662426873  BUTH      293             0.0000000000
     20681       928  BUTH      DC3            14.0040527728      -22.8336245603       19.9288662788  BUTH      293             0.0000000000
     20682       928  BUTH      C4             13.9894488848      -23.0121247714       18.6202124584  BUTH      293             0.0000000000
     20683       928  BUTH      DC4            14.0042072761      -23.0138338661       18.6213148987  BUTH      293             0.0000000000
     20684       928  BUTH      O1             13.0546165832      -23.6860485793       18.1804928076  BUTH      293             0.0000000000
     20685       928  BUTH      DO1            13.0795856512      -23.6291397847       18.1455162287  BUTH      293             0.0000000000
     20686       928  BUTH      O2             14.3885979336      -22.1958624612       17.8168206223  BUTH      293             0.0000000000
     20687       928  BUTH      DO2            14.4066754962      -22.1935649792       17.8142671500  BUTH      293             0.0000000000
     20688       928  BUTH      H1             14.6243598862      -25.4383119471       20.7338859802  BUTH      293             0.0000000000
     20689       928  BUTH      H2             15.6855554181      -25.0107481430       19.3554113615  BUTH      293             0.0000000000
     20690       928  BUTH      H3             16.3904405237      -25.1656928410       20.9963649982  BUTH      293             0.0000000000
     20691       928  BUTH      H4             16.1269914085      -22.7650241454       20.3542746149  BUTH      293             0.0000000000
     20692       928  BUTH      H5             15.1506196192      -23.1511693742       21.7854460874  BUTH      293             0.0000000000
     20693       928  BUTH      H6             13.9230413357      -21.7274736664       20.2199220528  BUTH      293             0.0000000000
     20694       928  BUTH      H7             13.1187735704      -23.2382968081       20.5051673639  BUTH      293             0.0000000000
     20695       928  BUTH      H8             13.7294499221      -22.4309907202       17.1451521023  BUTH      293             0.0000000000
     20696       928  BUTH      H9             13.0249081055      -23.7519056484       17.2141899292  BUTH      293             0.0000000000
     20697       928  BUTH      LPO11          12.8435668413      -23.7831855552       18.4422606711  BUTH      293             0.0000000000
     20698       928  BUTH      LPO12          13.0842166100      -23.7197193245       17.8333759407  BUTH      293             0.0000000000
     20699       928  BUTH      LPO21          14.2665791579      -21.8882545287       17.9307889435  BUTH      293             0.0000000000
     20700       928  BUTH      LPO22          14.6798030702      -22.3353881501       17.6817941414  BUTH      293             0.0000000000
     20701       929  BUTH      C1             -8.0015127733      -22.6148603643       20.4692368151  BUTH      294             0.0000000000
     20702       929  BUTH      DC1            -8.0425785513      -22.5510256381       20.5056933190  BUTH      294             0.0000000000
     20703       929  BUTH      C2             -8.4355054241      -22.6361806149       21.9295571252  BUTH      294             0.0000000000
     20704       929  BUTH      DC2            -8.4553049482      -22.6847992767       21.9444728651  BUTH      294             0.0000000000
     20705       929  BUTH      C3             -9.2027460090      -21.3712839459       22.3249437803  BUTH      294             0.0000000000
     20706       929  BUTH      DC3            -9.1921982329      -21.3281397492       22.2824780913  BUTH      294             0.0000000000
     20707       929  BUTH      C4             -8.6541702221      -20.2717262112       21.7468825150  BUTH      294             0.0000000000
     20708       929  BUTH      DC4            -8.6530692362      -20.2627501690       21.7301310511  BUTH      294             0.0000000000
     20709       929  BUTH      O1             -9.3746297663      -19.7140457745       20.9014307342  BUTH      294             0.0000000000
     20710       929  BUTH      DO1            -9.3510199650      -19.6827334919       20.9199732390  BUTH      294             0.0000000000
     20711       929  BUTH      O2             -7.8170488494      -19.5467724289       22.3157500296  BUTH      294             0.0000000000
     20712       929  BUTH      DO2            -7.8097369421      -19.5487564812       22.3078863095  BUTH      294             0.0000000000
     20713       929  BUTH      H1             -8.8503221494      -22.8199937806       19.7823860852  BUTH      294             0.0000000000
     20714       929  BUTH      H2             -7.5299110559      -21.6563572833       20.1639751830  BUTH      294             0.0000000000
     20715       929  BUTH      H3             -7.2313937707      -23.3911563079       20.2727620550  BUTH      294             0.0000000000
     20716       929  BUTH      H4             -7.5232877206      -22.6611204574       22.5632430613  BUTH      294             0.0000000000
     20717       929  BUTH      H5             -9.0086805476      -23.5575079077       22.1681934550  BUTH      294             0.0000000000
     20718       929  BUTH      H6             -9.1919989315      -21.3291278845       23.4350916844  BUTH      294             0.0000000000
     20719       929  BUTH      H7            -10.2650968736      -21.5690751269       22.0668540881  BUTH      294             0.0000000000
     20720       929  BUTH      H8             -8.1355653467      -18.6974824024       21.9720151146  BUTH      294             0.0000000000
     20721       929  BUTH      H9             -9.0068764702      -18.8924249791       20.5427417555  BUTH      294             0.0000000000
     20722       929  BUTH      LPO11          -9.6782151525      -19.8855433245       20.8710250827  BUTH      294             0.0000000000
     20723       929  BUTH      LPO12          -9.2098205896      -19.4351268186       20.7689839474  BUTH      294             0.0000000000
     20724       929  BUTH      LPO21          -7.9245151233      -19.5275871008       22.6482901372  BUTH      294             0.0000000000
     20725       929  BUTH      LPO22          -7.5223571175      -19.5861015328       22.1310610891  BUTH      294             0.0000000000
     20726       930  BUTH      C1             26.4925413012      -16.2759355937      -22.8064334806  BUTH      295             0.0000000000
     20727       930  BUTH      DC1            26.5502659161      -16.3089669727      -22.8288464484  BUTH      295             0.0000000000
     20728       930  BUTH      C2             27.8831503950      -16.6326127717      -22.3000345259  BUTH      295             0.0000000000
     20729       930  BUTH      DC2            27.8999046443      -16.6016538342      -22.2311201697  BUTH      295             0.0000000000
     20730       930  BUTH      C3             28.7695956139      -17.1645327594      -23.4383102491  BUTH      295             0.0000000000
     20731       930  BUTH      DC3            28.7363202338      -17.1749321597      -23.4595954982  BUTH      295             0.0000000000
     20732       930  BUTH      C4             28.1647823085      -18.0014793219      -24.3322768407  BUTH      295             0.0000000000
     20733       930  BUTH      DC4            28.1676788134      -17.9956221368      -24.3283673994  BUTH      295             0.0000000000
     20734       930  BUTH      O1             27.9422519986      -17.4910006107      -25.4389674130  BUTH      295             0.0000000000
     20735       930  BUTH      DO1            27.9676056740      -17.5521703728      -25.4412691188  BUTH      295             0.0000000000
     20736       930  BUTH      O2             28.4622857823      -19.1870307216      -24.4078362830  BUTH      295             0.0000000000
     20737       930  BUTH      DO2            28.4686365206      -19.1873263262      -24.3994455904  BUTH      295             0.0000000000
     20738       930  BUTH      H1             26.5384076681      -15.4380428810      -23.5345495969  BUTH      295             0.0000000000
     20739       930  BUTH      H2             26.0068556653      -17.1340446038      -23.3183703809  BUTH      295             0.0000000000
     20740       930  BUTH      H3             25.8233974091      -15.9658388441      -21.9755258689  BUTH      295             0.0000000000
     20741       930  BUTH      H4             27.7994695630      -17.4029833339      -21.5038889890  BUTH      295             0.0000000000
     20742       930  BUTH      H5             28.3649328584      -15.7457553966      -21.8356094466  BUTH      295             0.0000000000
     20743       930  BUTH      H6             29.6575484385      -17.6300765553      -22.9596352479  BUTH      295             0.0000000000
     20744       930  BUTH      H7             29.1736299947      -16.2394396386      -23.9022929395  BUTH      295             0.0000000000
     20745       930  BUTH      H8             28.3438106630      -19.2645980255      -25.3674439943  BUTH      295             0.0000000000
     20746       930  BUTH      H9             27.6708123449      -18.1208779344      -26.1234643607  BUTH      295             0.0000000000
     20747       930  BUTH      LPO11          28.0538752936      -17.1592953957      -25.4424156534  BUTH      295             0.0000000000
     20748       930  BUTH      LPO12          27.7876253054      -17.7240571546      -25.6493842209  BUTH      295             0.0000000000
     20749       930  BUTH      LPO21          28.8112252776      -19.1948087511      -24.3817454623  BUTH      295             0.0000000000
     20750       930  BUTH      LPO22          28.1807637812      -19.3588232576      -24.2906497333  BUTH      295             0.0000000000
     20751       931  BUTH      C1             22.8541962082       -5.5650816331       15.4371780518  BUTH      296             0.0000000000
     20752       931  BUTH      DC1            22.8012565897       -5.5609380722       15.4152540554  BUTH      296             0.0000000000
     20753       931  BUTH      C2             24.1618903794       -5.2983752446       16.1601486989  BUTH      296             0.0000000000
     20754       931  BUTH      DC2            24.0951605615       -5.3822852109       16.1680029917  BUTH      296             0.0000000000
     20755       931  BUTH      C3             24.2612118554       -3.8561550088       16.7108205438  BUTH      296             0.0000000000
     20756       931  BUTH      DC3            24.2276523143       -3.8947291548       16.7195476706  BUTH      296             0.0000000000
     20757       931  BUTH      C4             24.1269856292       -2.7829801747       15.8656335900  BUTH      296             0.0000000000
     20758       931  BUTH      DC4            24.0848978233       -2.8334850945       15.9041418506  BUTH      296             0.0000000000
     20759       931  BUTH      O1             22.9609313325       -2.3270936943       15.9263674748  BUTH      296             0.0000000000
     20760       931  BUTH      DO1            22.9685560334       -2.3253767424       15.9306725722  BUTH      296             0.0000000000
     20761       931  BUTH      O2             25.1207733135       -2.0246206160       15.6990808002  BUTH      296             0.0000000000
     20762       931  BUTH      DO2            25.0731900971       -2.0760454540       15.7468887347  BUTH      296             0.0000000000
     20763       931  BUTH      H1             21.9773655730       -5.4096896081       16.1015140780  BUTH      296             0.0000000000
     20764       931  BUTH      H2             22.7762425975       -4.8421708246       14.5971517432  BUTH      296             0.0000000000
     20765       931  BUTH      H3             22.8321683903       -6.6032956845       15.0422763433  BUTH      296             0.0000000000
     20766       931  BUTH      H4             25.0149150662       -5.4496757233       15.4646071465  BUTH      296             0.0000000000
     20767       931  BUTH      H5             24.3006547505       -6.0271642975       16.9871504920  BUTH      296             0.0000000000
     20768       931  BUTH      H6             25.2461055304       -3.8252705018       17.2239984829  BUTH      296             0.0000000000
     20769       931  BUTH      H7             23.5299586009       -3.8468725695       17.5471838107  BUTH      296             0.0000000000
     20770       931  BUTH      H8             24.8819045140       -1.2910018693       15.1111647933  BUTH      296             0.0000000000
     20771       931  BUTH      H9             22.8316766944       -1.4711894766       15.4908422647  BUTH      296             0.0000000000
     20772       931  BUTH      LPO11          22.7712050684       -2.5135356539       16.1538391003  BUTH      296             0.0000000000
     20773       931  BUTH      LPO12          22.9279411698       -2.0535773950       15.7104960242  BUTH      296             0.0000000000
     20774       931  BUTH      LPO21          25.1414648150       -1.8438858663       15.9980905191  BUTH      296             0.0000000000
     20775       931  BUTH      LPO22          25.3265848171       -2.2008091938       15.4774973846  BUTH      296             0.0000000000
     20776       932  BUTH      C1            -25.8742717156       26.5285516203       16.2988883813  BUTH      297             0.0000000000
     20777       932  BUTH      DC1           -25.8866051715       26.5119515965       16.3077440807  BUTH      297             0.0000000000
     20778       932  BUTH      C2            -25.0905747618       25.6858130210       15.2946382253  BUTH      297             0.0000000000
     20779       932  BUTH      DC2           -25.1031423649       25.7627534159       15.2452027984  BUTH      297             0.0000000000
     20780       932  BUTH      C3            -25.3203673223       24.1649093055       15.4508128388  BUTH      297             0.0000000000
     20781       932  BUTH      DC3           -25.3339699253       24.2034703808       15.4590498890  BUTH      297             0.0000000000
     20782       932  BUTH      C4            -25.1493937998       23.6398388679       16.6975255267  BUTH      297             0.0000000000
     20783       932  BUTH      DC4           -25.1677508608       23.6734624199       16.6615546651  BUTH      297             0.0000000000
     20784       932  BUTH      O1            -26.2079123203       23.4465351387       17.3181191243  BUTH      297             0.0000000000
     20785       932  BUTH      DO1           -26.1791810553       23.4507966591       17.3069944035  BUTH      297             0.0000000000
     20786       932  BUTH      O2            -24.0635502774       23.1535851709       17.0661043886  BUTH      297             0.0000000000
     20787       932  BUTH      DO2           -24.0911352916       23.1826448765       17.0311445111  BUTH      297             0.0000000000
     20788       932  BUTH      H1            -26.9631647037       26.3183127228       16.2323101022  BUTH      297             0.0000000000
     20789       932  BUTH      H2            -25.5515005652       26.2960277039       17.3362274823  BUTH      297             0.0000000000
     20790       932  BUTH      H3            -25.7109510411       27.6139704590       16.1270940292  BUTH      297             0.0000000000
     20791       932  BUTH      H4            -24.0058172454       25.8855034443       15.4278518350  BUTH      297             0.0000000000
     20792       932  BUTH      H5            -25.3556957153       25.9866491350       14.2585255324  BUTH      297             0.0000000000
     20793       932  BUTH      H6            -24.6287440865       23.6865869186       14.7247370893  BUTH      297             0.0000000000
     20794       932  BUTH      H7            -26.3291410361       23.9713573737       15.0274521836  BUTH      297             0.0000000000
     20795       932  BUTH      H8            -24.2955979311       22.5915391238       17.8218544315  BUTH      297             0.0000000000
     20796       932  BUTH      H9            -26.0957329382       22.9916006143       18.1663003341  BUTH      297             0.0000000000
     20797       932  BUTH      LPO11         -26.4810748206       23.5437568390       17.1220829300  BUTH      297             0.0000000000
     20798       932  BUTH      LPO12         -26.1387686538       23.3120560824       17.6337685133  BUTH      297             0.0000000000
     20799       932  BUTH      LPO21         -23.9939266424       22.9055338793       16.8292012308  BUTH      297             0.0000000000
     20800       932  BUTH      LPO22         -23.9038162449       23.4148268966       17.2356266573  BUTH      297             0.0000000000
     20801       933  BUTH      C1             25.7856973053      -11.4536916304       23.6547359544  BUTH      298             0.0000000000
     20802       933  BUTH      DC1            25.7448438953      -11.4535391007       23.6758901524  BUTH      298             0.0000000000
     20803       933  BUTH      C2             25.1750914842      -10.0888307190       23.3586469095  BUTH      298             0.0000000000
     20804       933  BUTH      DC2            25.2430159344      -10.0716832964       23.3294062331  BUTH      298             0.0000000000
     20805       933  BUTH      C3             24.0163260182       -9.7097470578       24.3164141338  BUTH      298             0.0000000000
     20806       933  BUTH      DC3            24.0332414795       -9.7166720400       24.3041224214  BUTH      298             0.0000000000
     20807       933  BUTH      C4             22.8745285262      -10.4652866032       24.3305305575  BUTH      298             0.0000000000
     20808       933  BUTH      DC4            22.9286592963      -10.4610260923       24.3393806376  BUTH      298             0.0000000000
     20809       933  BUTH      O1             22.7346045188      -11.0465493379       25.4141692120  BUTH      298             0.0000000000
     20810       933  BUTH      DO1            22.7313395441      -11.0365884424       25.3999917575  BUTH      298             0.0000000000
     20811       933  BUTH      O2             21.8726805239      -10.1253617043       23.6434730685  BUTH      298             0.0000000000
     20812       933  BUTH      DO2            21.9426467932      -10.1196211070       23.6382877009  BUTH      298             0.0000000000
     20813       933  BUTH      H1             26.1483251769      -11.5092461295       24.7034188067  BUTH      298             0.0000000000
     20814       933  BUTH      H2             25.0416940071      -12.2651961193       23.5056032729  BUTH      298             0.0000000000
     20815       933  BUTH      H3             26.6515230912      -11.6579309072       22.9891887906  BUTH      298             0.0000000000
     20816       933  BUTH      H4             24.8081328909      -10.0688286529       22.3101898006  BUTH      298             0.0000000000
     20817       933  BUTH      H5             25.9752376211       -9.3223793201       23.4401295014  BUTH      298             0.0000000000
     20818       933  BUTH      H6             23.7456622070       -8.6658880329       24.0491681067  BUTH      298             0.0000000000
     20819       933  BUTH      H7             24.5118854169       -9.5872485267       25.3031947539  BUTH      298             0.0000000000
     20820       933  BUTH      H8             21.0794949478      -10.4300013218       24.1113954396  BUTH      298             0.0000000000
     20821       933  BUTH      H9             21.9218745047      -11.5687670705       25.4897970104  BUTH      298             0.0000000000
     20822       933  BUTH      LPO11          23.0008874689      -10.9681187109       25.6273405685  BUTH      298             0.0000000000
     20823       933  BUTH      LPO12          22.4412537926      -11.2374230678       25.4106237020  BUTH      298             0.0000000000
     20824       933  BUTH      LPO21          21.8398590341       -9.7819047055       23.7022951709  BUTH      298             0.0000000000
     20825       933  BUTH      LPO22          21.8681936652      -10.3535720916       23.3781432977  BUTH      298             0.0000000000
     20826       934  BUTH      C1            -10.7915439854      -10.0658159791      -28.7494433255  BUTH      299             0.0000000000
     20827       934  BUTH      DC1           -10.7785714839      -10.0276104051      -28.7102403634  BUTH      299             0.0000000000
     20828       934  BUTH      C2            -11.5088882380       -8.7289548404      -28.9083175525  BUTH      299             0.0000000000
     20829       934  BUTH      DC2           -11.5259530914       -8.7501284479      -28.9508066624  BUTH      299             0.0000000000
     20830       934  BUTH      C3            -10.6620617838       -7.5059824066      -28.4801465505  BUTH      299             0.0000000000
     20831       934  BUTH      DC3           -10.6326879671       -7.5126877484      -28.4439860694  BUTH      299             0.0000000000
     20832       934  BUTH      C4            -10.1672409074       -7.5210269940      -27.2091457038  BUTH      299             0.0000000000
     20833       934  BUTH      DC4           -10.1476746020       -7.5411851053      -27.2158544421  BUTH      299             0.0000000000
     20834       934  BUTH      O1             -8.9307000608       -7.6796353417      -27.1441650116  BUTH      299             0.0000000000
     20835       934  BUTH      DO1            -8.9243824442       -7.6604981475      -27.1367119103  BUTH      299             0.0000000000
     20836       934  BUTH      O2            -10.8015165593       -6.9487840560      -26.2702676558  BUTH      299             0.0000000000
     20837       934  BUTH      DO2           -10.8067323719       -6.9755839755      -26.3055039948  BUTH      299             0.0000000000
     20838       934  BUTH      H1             -9.8447020701      -10.0881962001      -29.3302277216  BUTH      299             0.0000000000
     20839       934  BUTH      H2            -10.5487812258      -10.2799241924      -27.6866428191  BUTH      299             0.0000000000
     20840       934  BUTH      H3            -11.4255550372      -10.8982810772      -29.1227432676  BUTH      299             0.0000000000
     20841       934  BUTH      H4            -12.4359308137       -8.7389000414      -28.2960968763  BUTH      299             0.0000000000
     20842       934  BUTH      H5            -11.8204744273       -8.5991347928      -29.9667984460  BUTH      299             0.0000000000
     20843       934  BUTH      H6            -11.3426204107       -6.6401273692      -28.6266252530  BUTH      299             0.0000000000
     20844       934  BUTH      H7             -9.9021497642       -7.3891236559      -29.2821432805  BUTH      299             0.0000000000
     20845       934  BUTH      H8            -10.1428240816       -6.6057824641      -25.6462691559  BUTH      299             0.0000000000
     20846       934  BUTH      H9             -8.5611615147       -7.6360232682      -26.2494582160  BUTH      299             0.0000000000
     20847       934  BUTH      LPO11          -8.7967736434       -7.7096107886      -27.4661357980  BUTH      299             0.0000000000
     20848       934  BUTH      LPO12          -8.8274798253       -7.6800781692      -26.8097320782  BUTH      299             0.0000000000
     20849       934  BUTH      LPO21         -10.9063369399       -6.6448469267      -26.4085966449  BUTH      299             0.0000000000
     20850       934  BUTH      LPO22         -10.9259352043       -7.2120774435      -26.0761115514  BUTH      299             0.0000000000
     20851       935  BUTH      C1             -1.5444420523       22.9768627505       -1.3019959657  BUTH      300             0.0000000000
     20852       935  BUTH      DC1            -1.5488883671       22.9651189256       -1.2944738348  BUTH      300             0.0000000000
     20853       935  BUTH      C2             -1.8633213180       21.8193932135       -2.2439524805  BUTH      300             0.0000000000
     20854       935  BUTH      DC2            -1.7566503776       21.8354136581       -2.2927541010  BUTH      300             0.0000000000
     20855       935  BUTH      C3             -3.3783083097       21.5683500915       -2.4261997078  BUTH      300             0.0000000000
     20856       935  BUTH      DC3            -3.3001889851       21.5645774105       -2.3848347544  BUTH      300             0.0000000000
     20857       935  BUTH      C4             -4.2446926599       21.2324179901       -1.4187416672  BUTH      300             0.0000000000
     20858       935  BUTH      DC4            -4.1949235566       21.2227846731       -1.4282192083  BUTH      300             0.0000000000
     20859       935  BUTH      O1             -4.2854250438       22.0194130528       -0.4630969904  BUTH      300             0.0000000000
     20860       935  BUTH      DO1            -4.2776284045       21.9498592821       -0.4442466201  BUTH      300             0.0000000000
     20861       935  BUTH      O2             -4.3264292265       20.0540270708       -1.0417405219  BUTH      300             0.0000000000
     20862       935  BUTH      DO2            -4.3083245368       20.0525226594       -1.0459161469  BUTH      300             0.0000000000
     20863       935  BUTH      H1             -2.0758665281       23.8976466861       -1.6245885423  BUTH      300             0.0000000000
     20864       935  BUTH      H2             -1.8913863615       22.7444393418       -0.2724669435  BUTH      300             0.0000000000
     20865       935  BUTH      H3             -0.4568867470       23.2009834454       -1.2657416844  BUTH      300             0.0000000000
     20866       935  BUTH      H4             -1.3788758131       20.8865083173       -1.8842869090  BUTH      300             0.0000000000
     20867       935  BUTH      H5             -1.4484814350       22.0650272181       -3.2448984375  BUTH      300             0.0000000000
     20868       935  BUTH      H6             -3.4408336602       20.7797831680       -3.2063111038  BUTH      300             0.0000000000
     20869       935  BUTH      H7             -3.6991919553       22.4849672341       -2.9657992814  BUTH      300             0.0000000000
     20870       935  BUTH      H8             -4.7551803827       20.2522005590       -0.1945099071  BUTH      300             0.0000000000
     20871       935  BUTH      H9             -4.9248739065       21.7779970192        0.2237686812  BUTH      300             0.0000000000
     20872       935  BUTH      LPO11          -4.0639975119       22.2850070610       -0.5172234251  BUTH      300             0.0000000000
     20873       935  BUTH      LPO12          -4.5147255285       21.9059332700       -0.2242589143  BUTH      300             0.0000000000
     20874       935  BUTH      LPO21          -4.5935862817       19.9184456228       -1.2226957064  BUTH      300             0.0000000000
     20875       935  BUTH      LPO22          -4.0037180273       19.9692320289       -0.9360651567  BUTH      300             0.0000000000
     20876       936  BUTH      C1             12.9254590362       27.3123246649      -26.0868717789  BUTH      301             0.0000000000
     20877       936  BUTH      DC1            12.9533940758       27.3099865107      -26.1229894064  BUTH      301             0.0000000000
     20878       936  BUTH      C2             12.9663738639       27.4625466984      -27.6053322551  BUTH      301             0.0000000000
     20879       936  BUTH      DC2            12.8809516043       27.4366100289      -27.6303996671  BUTH      301             0.0000000000
     20880       936  BUTH      C3             14.3886035361       27.2695324649      -28.1737628859  BUTH      301             0.0000000000
     20881       936  BUTH      DC3            14.3719141596       27.2857791636      -28.1525572914  BUTH      301             0.0000000000
     20882       936  BUTH      C4             15.3548735782       28.0459410314      -27.6061706353  BUTH      301             0.0000000000
     20883       936  BUTH      DC4            15.3262240954       28.0353477983      -27.6191606384  BUTH      301             0.0000000000
     20884       936  BUTH      O1             16.1247785249       27.4656526115      -26.8304811854  BUTH      301             0.0000000000
     20885       936  BUTH      DO1            16.1235331671       27.5160858368      -26.8621451304  BUTH      301             0.0000000000
     20886       936  BUTH      O2             15.7696603875       29.0820580714      -28.1418371762  BUTH      301             0.0000000000
     20887       936  BUTH      DO2            15.7549819706       29.0678412649      -28.1557448313  BUTH      301             0.0000000000
     20888       936  BUTH      H1             13.3068389041       26.3174861525      -25.7719642829  BUTH      301             0.0000000000
     20889       936  BUTH      H2             13.5571710605       28.0798847532      -25.5907745794  BUTH      301             0.0000000000
     20890       936  BUTH      H3             11.8929769242       27.4277120704      -25.6931873429  BUTH      301             0.0000000000
     20891       936  BUTH      H4             12.6105007588       28.4811336985      -27.8702017665  BUTH      301             0.0000000000
     20892       936  BUTH      H5             12.2761228507       26.7290511292      -28.0742232774  BUTH      301             0.0000000000
     20893       936  BUTH      H6             14.3081124570       27.4592722233      -29.2654775971  BUTH      301             0.0000000000
     20894       936  BUTH      H7             14.5986656613       26.1810005097      -28.1010092885  BUTH      301             0.0000000000
     20895       936  BUTH      H8             16.5808215013       29.1816896702      -27.6193515859  BUTH      301             0.0000000000
     20896       936  BUTH      H9             16.8848699625       27.9948703753      -26.5456118032  BUTH      301             0.0000000000
     20897       936  BUTH      LPO11          16.0392210484       27.1270211045      -26.8079285651  BUTH      301             0.0000000000
     20898       936  BUTH      LPO12          16.3592972728       27.6920098680      -26.7029533481  BUTH      301             0.0000000000
     20899       936  BUTH      LPO21          15.9016813220       28.9784770674      -28.4489877069  BUTH      301             0.0000000000
     20900       936  BUTH      LPO22          15.5729769997       29.3384124652      -28.0073081098  BUTH      301             0.0000000000
     20901       937  BUTH      C1              8.6615879540      -23.1879678692      -22.1626157248  BUTH      302             0.0000000000
     20902       937  BUTH      DC1             8.7156008065      -23.1963706087      -22.1374144916  BUTH      302             0.0000000000
     20903       937  BUTH      C2              9.7986271117      -24.1930390801      -22.2819722699  BUTH      302             0.0000000000
     20904       937  BUTH      DC2             9.7545996762      -24.2696319413      -22.2913888058  BUTH      302             0.0000000000
     20905       937  BUTH      C3             11.1082617037      -23.6413753795      -21.6913816849  BUTH      302             0.0000000000
     20906       937  BUTH      DC3            11.0701944529      -23.6182776255      -21.7187250168  BUTH      302             0.0000000000
     20907       937  BUTH      C4             11.6321485570      -22.4868520159      -22.1837448830  BUTH      302             0.0000000000
     20908       937  BUTH      DC4            11.5983918504      -22.4927412028      -22.1964992219  BUTH      302             0.0000000000
     20909       937  BUTH      O1             11.4097329344      -21.4468828418      -21.5413240184  BUTH      302             0.0000000000
     20910       937  BUTH      DO1            11.4334172755      -21.4466186822      -21.5742963384  BUTH      302             0.0000000000
     20911       937  BUTH      O2             12.3597470834      -22.4426845057      -23.1992317000  BUTH      302             0.0000000000
     20912       937  BUTH      DO2            12.3401300129      -22.4539739167      -23.2098604718  BUTH      302             0.0000000000
     20913       937  BUTH      H1              8.5238446960      -22.8622410262      -21.1094064295  BUTH      302             0.0000000000
     20914       937  BUTH      H2              8.8596566309      -22.2778796121      -22.7682799585  BUTH      302             0.0000000000
     20915       937  BUTH      H3              7.7005499325      -23.6185472962      -22.5166330666  BUTH      302             0.0000000000
     20916       937  BUTH      H4              9.9513320824      -24.4590388371      -23.3497954398  BUTH      302             0.0000000000
     20917       937  BUTH      H5              9.5294488496      -25.1256002527      -21.7414228062  BUTH      302             0.0000000000
     20918       937  BUTH      H6             11.8661533077      -24.4473211205      -21.7932285266  BUTH      302             0.0000000000
     20919       937  BUTH      H7             10.9207548106      -23.5980100200      -20.5971780424  BUTH      302             0.0000000000
     20920       937  BUTH      H8             12.8310310513      -21.6178148497      -23.0033198009  BUTH      302             0.0000000000
     20921       937  BUTH      H9             11.8419795335      -20.6532965918      -21.8911021525  BUTH      302             0.0000000000
     20922       937  BUTH      LPO11          11.2160566883      -21.5196719158      -21.2590276096  BUTH      302             0.0000000000
     20923       937  BUTH      LPO12          11.5605511439      -21.1736985052      -21.6998301253  BUTH      302             0.0000000000
     20924       937  BUTH      LPO21          12.6128462821      -22.6769039072      -23.1393813230  BUTH      302             0.0000000000
     20925       937  BUTH      LPO22          12.1485701130      -22.3361549775      -23.4572157048  BUTH      302             0.0000000000
     20926       938  BUTH      C1              5.8301394310        9.2525951269       21.3559713662  BUTH      303             0.0000000000
     20927       938  BUTH      DC1             5.7923319792        9.2771406670       21.3430086650  BUTH      303             0.0000000000
     20928       938  BUTH      C2              4.6546658519        8.7683423605       20.5162875059  BUTH      303             0.0000000000
     20929       938  BUTH      DC2             4.6907927777        8.7022220488       20.4873502030  BUTH      303             0.0000000000
     20930       938  BUTH      C3              3.6948042561        9.9157854832       20.1539720385  BUTH      303             0.0000000000
     20931       938  BUTH      DC3             3.7019755864        9.9134598398       20.2077967219  BUTH      303             0.0000000000
     20932       938  BUTH      C4              3.2400561832       10.6491009489       21.1999643579  BUTH      303             0.0000000000
     20933       938  BUTH      DC4             3.2434925333       10.6325386131       21.2077282508  BUTH      303             0.0000000000
     20934       938  BUTH      O1              3.6049506378       11.8283029015       21.2187409135  BUTH      303             0.0000000000
     20935       938  BUTH      DO1             3.5487228788       11.8003758806       21.2417751633  BUTH      303             0.0000000000
     20936       938  BUTH      O2              2.1584603546       10.4194252271       21.7483154980  BUTH      303             0.0000000000
     20937       938  BUTH      DO2             2.1603646143       10.4008472338       21.7536114809  BUTH      303             0.0000000000
     20938       938  BUTH      H1              6.4059387677       10.0385688685       20.8220974093  BUTH      303             0.0000000000
     20939       938  BUTH      H2              5.4842365150        9.6898771839       22.3169378461  BUTH      303             0.0000000000
     20940       938  BUTH      H3              6.5230573009        8.4187725019       21.5987174431  BUTH      303             0.0000000000
     20941       938  BUTH      H4              4.0966223078        7.9899594249       21.0793402639  BUTH      303             0.0000000000
     20942       938  BUTH      H5              5.0238503238        8.2996198724       19.5790985937  BUTH      303             0.0000000000
     20943       938  BUTH      H6              2.8516924507        9.4462846250       19.6034700584  BUTH      303             0.0000000000
     20944       938  BUTH      H7              4.2264657599       10.5159793544       19.3849308417  BUTH      303             0.0000000000
     20945       938  BUTH      H8              1.9374337463       11.3470932105       21.9257397100  BUTH      303             0.0000000000
     20946       938  BUTH      H9              3.2004700618       12.3658964045       21.9161286756  BUTH      303             0.0000000000
     20947       938  BUTH      LPO11           3.8086452061       11.8949988983       20.9420458343  BUTH      303             0.0000000000
     20948       938  BUTH      LPO12           3.4720216336       11.9902946535       21.4990774115  BUTH      303             0.0000000000
     20949       938  BUTH      LPO21           1.9375345687       10.3459185644       21.4869946844  BUTH      303             0.0000000000
     20950       938  BUTH      LPO22           2.2410317687       10.3068648569       22.0692705177  BUTH      303             0.0000000000
     20951       939  BUTH      C1            -12.5133029291       10.6989462062       -4.4136976559  BUTH      304             0.0000000000
     20952       939  BUTH      DC1           -12.5608620839       10.6715404450       -4.3974270068  BUTH      304             0.0000000000
     20953       939  BUTH      C2            -12.9614101940       11.7734448357       -3.4288148315  BUTH      304             0.0000000000
     20954       939  BUTH      DC2           -12.9207376164       11.7609676139       -3.4019228155  BUTH      304             0.0000000000
     20955       939  BUTH      C3            -14.3853878661       11.5210619216       -2.8828800301  BUTH      304             0.0000000000
     20956       939  BUTH      DC3           -14.4177559486       11.4985165692       -2.9283397853  BUTH      304             0.0000000000
     20957       939  BUTH      C4            -15.3348025409       11.2727077434       -3.8301462412  BUTH      304             0.0000000000
     20958       939  BUTH      DC4           -15.3451907056       11.2656685721       -3.8313628269  BUTH      304             0.0000000000
     20959       939  BUTH      O1            -15.8360480237       10.1340931554       -3.7962002552  BUTH      304             0.0000000000
     20960       939  BUTH      DO1           -15.8795835483       10.1671681013       -3.8100682129  BUTH      304             0.0000000000
     20961       939  BUTH      O2            -16.1161589583       12.1436273669       -4.2358958707  BUTH      304             0.0000000000
     20962       939  BUTH      DO2           -16.1220660220       12.1533762257       -4.2278004583  BUTH      304             0.0000000000
     20963       939  BUTH      H1            -12.4849970806        9.6968087946       -3.9349071078  BUTH      304             0.0000000000
     20964       939  BUTH      H2            -13.1977335000       10.6442525005       -5.2871301907  BUTH      304             0.0000000000
     20965       939  BUTH      H3            -11.4983117916       10.9316695946       -4.8009363620  BUTH      304             0.0000000000
     20966       939  BUTH      H4            -12.9321224847       12.7601717954       -3.9385531340  BUTH      304             0.0000000000
     20967       939  BUTH      H5            -12.2409210272       11.8367076487       -2.5854796792  BUTH      304             0.0000000000
     20968       939  BUTH      H6            -14.6234515914       12.4188673763       -2.2732965419  BUTH      304             0.0000000000
     20969       939  BUTH      H7            -14.2642448475       10.7123702532       -2.1307742166  BUTH      304             0.0000000000
     20970       939  BUTH      H8            -16.7902190699       11.5259753913       -4.5600085109  BUTH      304             0.0000000000
     20971       939  BUTH      H9            -16.5772709798       10.0063704387       -4.4071310507  BUTH      304             0.0000000000
     20972       939  BUTH      LPO11         -15.6936853847        9.9483387018       -3.5359539065  BUTH      304             0.0000000000
     20973       939  BUTH      LPO12         -16.0748371978       10.1008079102       -4.0499162830  BUTH      304             0.0000000000
     20974       939  BUTH      LPO21         -16.2713888428       12.2684192752       -3.9480927043  BUTH      304             0.0000000000
     20975       939  BUTH      LPO22         -15.9781157037       12.2572735748       -4.5367755797  BUTH      304             0.0000000000
     20976       940  BUTH      C1              5.0347981156      -10.5512934505       17.7741377244  BUTH      305             0.0000000000
     20977       940  BUTH      DC1             5.1180246799      -10.5299704925       17.7921211756  BUTH      305             0.0000000000
     20978       940  BUTH      C2              6.0714039132       -9.5073636263       17.3844764245  BUTH      305             0.0000000000
     20979       940  BUTH      DC2             6.1069266643       -9.5153960806       17.2821004203  BUTH      305             0.0000000000
     20980       940  BUTH      C3              7.1074137793       -9.3103440391       18.5055899507  BUTH      305             0.0000000000
     20981       940  BUTH      DC3             7.1101153092       -9.3269167434       18.4952703254  BUTH      305             0.0000000000
     20982       940  BUTH      C4              6.5865818109       -9.0292001843       19.7390751016  BUTH      305             0.0000000000
     20983       940  BUTH      DC4             6.6132273163       -9.0626556434       19.7086851938  BUTH      305             0.0000000000
     20984       940  BUTH      O1              6.7853104934       -9.9737080941       20.5333104947  BUTH      305             0.0000000000
     20985       940  BUTH      DO1             6.8040728633       -9.9571304384       20.5324041642  BUTH      305             0.0000000000
     20986       940  BUTH      O2              6.6834946565       -7.8444586806       20.1650522834  BUTH      305             0.0000000000
     20987       940  BUTH      DO2             6.7163801113       -7.8836100499       20.1359975893  BUTH      305             0.0000000000
     20988       940  BUTH      H1              5.4982012092      -11.4898154346       18.1466361255  BUTH      305             0.0000000000
     20989       940  BUTH      H2              4.3570738561      -10.1707436779       18.5679844971  BUTH      305             0.0000000000
     20990       940  BUTH      H3              4.3962965242      -10.8225218768       16.9063405939  BUTH      305             0.0000000000
     20991       940  BUTH      H4              5.5421345827       -8.5467022568       17.2074885410  BUTH      305             0.0000000000
     20992       940  BUTH      H5              6.5738003149       -9.8051519384       16.4393621572  BUTH      305             0.0000000000
     20993       940  BUTH      H6              7.7728598266       -8.4914912172       18.1577643963  BUTH      305             0.0000000000
     20994       940  BUTH      H7              7.7448500847      -10.2191894994       18.4609146111  BUTH      305             0.0000000000
     20995       940  BUTH      H8              6.2475691533       -7.8491495422       21.0315665369  BUTH      305             0.0000000000
     20996       940  BUTH      H9              6.5288358232       -9.7886437698       21.4492433194  BUTH      305             0.0000000000
     20997       940  BUTH      LPO11           6.9583730299      -10.2315201789       20.3718103789  BUTH      305             0.0000000000
     20998       940  BUTH      LPO12           6.6503119566       -9.8968047153       20.8469364907  BUTH      305             0.0000000000
     20999       940  BUTH      LPO21           7.0160784113       -7.8160046695       20.2703063346  BUTH      305             0.0000000000
     21000       940  BUTH      LPO22           6.4436365411       -7.6659251939       19.9831350534  BUTH      305             0.0000000000
     21001       941  BUTH      C1             25.8032984794       -2.4998721731       -4.8204510493  BUTH      306             0.0000000000
     21002       941  BUTH      DC1            25.7315539625       -2.4927625721       -4.8192847976  BUTH      306             0.0000000000
     21003       941  BUTH      C2             25.1698487927       -1.9221358111       -3.5611336943  BUTH      306             0.0000000000
     21004       941  BUTH      DC2            25.1882264197       -1.9152888000       -3.5423868912  BUTH      306             0.0000000000
     21005       941  BUTH      C3             23.7661899244       -2.5088860177       -3.2752158690  BUTH      306             0.0000000000
     21006       941  BUTH      DC3            23.7160164292       -2.5074061501       -3.3416333446  BUTH      306             0.0000000000
     21007       941  BUTH      C4             22.8864557014       -2.4351972503       -4.3118106799  BUTH      306             0.0000000000
     21008       941  BUTH      DC4            22.8595023321       -2.4321591006       -4.3285502636  BUTH      306             0.0000000000
     21009       941  BUTH      O1             22.5561363622       -3.4866418820       -4.8788271547  BUTH      306             0.0000000000
     21010       941  BUTH      DO1            22.4735237044       -3.4235156749       -4.8934379432  BUTH      306             0.0000000000
     21011       941  BUTH      O2             21.9534677546       -1.6630827872       -4.3541820838  BUTH      306             0.0000000000
     21012       941  BUTH      DO2            21.9274116110       -1.6616331375       -4.3453865392  BUTH      306             0.0000000000
     21013       941  BUTH      H1             25.9417808817       -3.5982546082       -4.7271791288  BUTH      306             0.0000000000
     21014       941  BUTH      H2             25.1913424627       -2.3042788362       -5.7268582867  BUTH      306             0.0000000000
     21015       941  BUTH      H3             26.8094638341       -2.0593662163       -4.9875042850  BUTH      306             0.0000000000
     21016       941  BUTH      H4             25.1125048790       -0.8178584765       -3.6688566961  BUTH      306             0.0000000000
     21017       941  BUTH      H5             25.8357648609       -2.1116392518       -2.6922463391  BUTH      306             0.0000000000
     21018       941  BUTH      H6             23.4084898879       -1.9709162421       -2.3713573593  BUTH      306             0.0000000000
     21019       941  BUTH      H7             23.9592437073       -3.5406450407       -2.9111766465  BUTH      306             0.0000000000
     21020       941  BUTH      H8             21.5194056381       -2.2065322235       -5.0303128325  BUTH      306             0.0000000000
     21021       941  BUTH      H9             21.8290643653       -3.3964169453       -5.5130091255  BUTH      306             0.0000000000
     21022       941  BUTH      LPO11          22.7183945217       -3.7588488595       -4.7302483839  BUTH      306             0.0000000000
     21023       941  BUTH      LPO12          22.3300715010       -3.4175390106       -5.1369346355  BUTH      306             0.0000000000
     21024       941  BUTH      LPO21          21.7622377578       -1.7324033779       -4.0693562703  BUTH      306             0.0000000000
     21025       941  BUTH      LPO22          22.0672908095       -1.3896561510       -4.5406819142  BUTH      306             0.0000000000
     21026       942  BUTH      C1             15.0594775920      -19.7987276216        6.8145115002  BUTH      307             0.0000000000
     21027       942  BUTH      DC1            15.0210724129      -19.7201557141        6.8728151511  BUTH      307             0.0000000000
     21028       942  BUTH      C2             15.5168269129      -18.9194137442        7.9636679133  BUTH      307             0.0000000000
     21029       942  BUTH      DC2            15.5916544296      -18.9238853378        7.9981525779  BUTH      307             0.0000000000
     21030       942  BUTH      C3             14.3387833529      -18.4919466103        8.8564503830  BUTH      307             0.0000000000
     21031       942  BUTH      DC3            14.3089187882      -18.4744234738        8.8294841786  BUTH      307             0.0000000000
     21032       942  BUTH      C4             13.3071720217      -17.9567483476        8.1501061541  BUTH      307             0.0000000000
     21033       942  BUTH      DC4            13.3062540107      -17.9543488302        8.1488005702  BUTH      307             0.0000000000
     21034       942  BUTH      O1             12.2065780065      -18.4919581977        8.3498080201  BUTH      307             0.0000000000
     21035       942  BUTH      DO1            12.2077606929      -18.4260144402        8.3485280709  BUTH      307             0.0000000000
     21036       942  BUTH      O2             13.2272298491      -16.7432723313        7.9690175712  BUTH      307             0.0000000000
     21037       942  BUTH      DO2            13.2331293227      -16.7427661231        7.9695492943  BUTH      307             0.0000000000
     21038       942  BUTH      H1             14.5623140994      -20.7193403069        7.1881714342  BUTH      307             0.0000000000
     21039       942  BUTH      H2             14.3453553355      -19.2813783481        6.1387155749  BUTH      307             0.0000000000
     21040       942  BUTH      H3             15.9211543385      -20.1303107176        6.1965415698  BUTH      307             0.0000000000
     21041       942  BUTH      H4             16.0118335786      -18.0165318585        7.5464225401  BUTH      307             0.0000000000
     21042       942  BUTH      H5             16.2682153640      -19.4699678047        8.5691649186  BUTH      307             0.0000000000
     21043       942  BUTH      H6             14.7592629746      -17.7700058760        9.5887887368  BUTH      307             0.0000000000
     21044       942  BUTH      H7             14.0817478329      -19.3820595119        9.4696002537  BUTH      307             0.0000000000
     21045       942  BUTH      H8             12.2622810315      -16.6943054531        8.0549013547  BUTH      307             0.0000000000
     21046       942  BUTH      H9             11.4614616048      -18.0572795732        7.9084271836  BUTH      307             0.0000000000
     21047       942  BUTH      LPO11          12.2401944062      -18.7518761275        8.5817834659  BUTH      307             0.0000000000
     21048       942  BUTH      LPO12          11.9604660393      -18.3353751210        8.1563897179  BUTH      307             0.0000000000
     21049       942  BUTH      LPO21          13.3298316640      -16.5991726624        8.2710244469  BUTH      307             0.0000000000
     21050       942  BUTH      LPO22          13.2671369076      -16.6998560239        7.6240212655  BUTH      307             0.0000000000
     21051       943  BUTH      C1             18.8793229374       23.2765234535       21.8735050006  BUTH      308             0.0000000000
     21052       943  BUTH      DC1            18.8501757444       23.3344194907       21.9147645076  BUTH      308             0.0000000000
     21053       943  BUTH      C2             19.3474780811       24.3989459118       22.7836286938  BUTH      308             0.0000000000
     21054       943  BUTH      DC2            19.3936829693       24.3961063675       22.8205181444  BUTH      308             0.0000000000
     21055       943  BUTH      C3             18.1690774940       25.1490926038       23.4406400758  BUTH      308             0.0000000000
     21056       943  BUTH      DC3            18.1334178763       25.1646641056       23.4291447423  BUTH      308             0.0000000000
     21057       943  BUTH      C4             17.1620507980       25.5540698612       22.6055363234  BUTH      308             0.0000000000
     21058       943  BUTH      DC4            17.1541752299       25.5605125015       22.6298847608  BUTH      308             0.0000000000
     21059       943  BUTH      O1             16.0766767057       24.9971903454       22.8534189660  BUTH      308             0.0000000000
     21060       943  BUTH      DO1            16.0729159788       25.0427671771       22.8586511252  BUTH      308             0.0000000000
     21061       943  BUTH      O2             17.0512570142       26.7764898009       22.2990674857  BUTH      308             0.0000000000
     21062       943  BUTH      DO2            17.0457912208       26.7837327855       22.3415523990  BUTH      308             0.0000000000
     21063       943  BUTH      H1             18.2725438925       22.5229041894       22.4195802671  BUTH      308             0.0000000000
     21064       943  BUTH      H2             18.2776268351       23.6489980143       21.0170322912  BUTH      308             0.0000000000
     21065       943  BUTH      H3             19.7622023688       22.7520051762       21.4495645699  BUTH      308             0.0000000000
     21066       943  BUTH      H4             19.9603324054       25.1024214912       22.1804266660  BUTH      308             0.0000000000
     21067       943  BUTH      H5             20.0161264733       23.9854708693       23.5686565392  BUTH      308             0.0000000000
     21068       943  BUTH      H6             18.6513320866       26.0018693115       23.9645898783  BUTH      308             0.0000000000
     21069       943  BUTH      H7             17.8466570049       24.4701177521       24.2587838156  BUTH      308             0.0000000000
     21070       943  BUTH      H8             16.3709828773       26.7258000670       21.6094606053  BUTH      308             0.0000000000
     21071       943  BUTH      H9             15.3300514151       25.3359689957       22.3369495076  BUTH      308             0.0000000000
     21072       943  BUTH      LPO11          16.1141249098       24.7763111461       23.1223241748  BUTH      308             0.0000000000
     21073       943  BUTH      LPO12          15.8304817534       25.1109665755       22.6321882835  BUTH      308             0.0000000000
     21074       943  BUTH      LPO21          16.8643372563       26.9178666827       22.5590166757  BUTH      308             0.0000000000
     21075       943  BUTH      LPO22          17.3324431635       26.8458514529       22.1025393434  BUTH      308             0.0000000000
     21076       944  BUTH      C1              2.7665159626       14.7582911912      -26.3092640769  BUTH      309             0.0000000000
     21077       944  BUTH      DC1             2.7854549036       14.7608204851      -26.2727148763  BUTH      309             0.0000000000
     21078       944  BUTH      C2              3.0876937619       16.0318721211      -25.5312460639  BUTH      309             0.0000000000
     21079       944  BUTH      DC2             3.1470895673       16.0652022502      -25.6038511318  BUTH      309             0.0000000000
     21080       944  BUTH      C3              3.0583308059       15.8215114823      -24.0012295524  BUTH      309             0.0000000000
     21081       944  BUTH      DC3             3.0559053564       15.8047609612      -24.0383994935  BUTH      309             0.0000000000
     21082       944  BUTH      C4              1.9345411796       15.2290820976      -23.5021574960  BUTH      309             0.0000000000
     21083       944  BUTH      DC4             1.9722400452       15.2366112829      -23.5231859318  BUTH      309             0.0000000000
     21084       944  BUTH      O1              2.1206099154       14.0763997599      -23.0787714927  BUTH      309             0.0000000000
     21085       944  BUTH      DO1             2.1040858880       14.1111150596      -23.0719101127  BUTH      309             0.0000000000
     21086       944  BUTH      O2              0.9939435216       15.9031560975      -23.0395398964  BUTH      309             0.0000000000
     21087       944  BUTH      DO2             1.0288999993       15.9003426812      -23.0531373035  BUTH      309             0.0000000000
     21088       944  BUTH      H1              3.4683110159       13.9393413087      -26.0425698814  BUTH      309             0.0000000000
     21089       944  BUTH      H2              1.7397870901       14.4013620709      -26.0795894666  BUTH      309             0.0000000000
     21090       944  BUTH      H3              2.8188996641       14.9247622830      -27.4064715884  BUTH      309             0.0000000000
     21091       944  BUTH      H4              2.3311776802       16.8036760171      -25.7887789083  BUTH      309             0.0000000000
     21092       944  BUTH      H5              4.0836520836       16.4234338362      -25.8296877583  BUTH      309             0.0000000000
     21093       944  BUTH      H6              3.2003546674       16.8297424761      -23.5566842926  BUTH      309             0.0000000000
     21094       944  BUTH      H7              4.0001253622       15.2866847414      -23.7536323557  BUTH      309             0.0000000000
     21095       944  BUTH      H8              0.5100970466       15.2390393873      -22.5240386027  BUTH      309             0.0000000000
     21096       944  BUTH      H9              1.3532763559       13.6823430728      -22.6373198680  BUTH      309             0.0000000000
     21097       944  BUTH      LPO11           2.4563591691       13.9865072054      -23.1199025916  BUTH      309             0.0000000000
     21098       944  BUTH      LPO12           1.8207283151       13.9440948002      -22.9560261325  BUTH      309             0.0000000000
     21099       944  BUTH      LPO21           1.1372359727       16.0889055742      -22.7798007862  BUTH      309             0.0000000000
     21100       944  BUTH      LPO22           0.7733690198       15.9438277579      -23.3082268987  BUTH      309             0.0000000000
     21101       945  BUTH      C1             -0.6980887227        0.5598363449       13.8748103489  BUTH      310             0.0000000000
     21102       945  BUTH      DC1            -0.7102257942        0.4756451139       13.8342395740  BUTH      310             0.0000000000
     21103       945  BUTH      C2             -1.8516445326       -0.4304467886       13.9076974517  BUTH      310             0.0000000000
     21104       945  BUTH      DC2            -1.8785244783       -0.4584581524       13.9376045181  BUTH      310             0.0000000000
     21105       945  BUTH      C3             -1.4072663102       -1.8357343376       13.4665637669  BUTH      310             0.0000000000
     21106       945  BUTH      DC3            -1.3691953929       -1.8574303186       13.3902974223  BUTH      310             0.0000000000
     21107       945  BUTH      C4             -0.7530017857       -1.8848452372       12.2775611748  BUTH      310             0.0000000000
     21108       945  BUTH      DC4            -0.7312069663       -1.9120009196       12.2494980046  BUTH      310             0.0000000000
     21109       945  BUTH      O1              0.3141544776       -2.5230176703       12.3036806516  BUTH      310             0.0000000000
     21110       945  BUTH      DO1             0.3138815775       -2.5628469556       12.2493377214  BUTH      310             0.0000000000
     21111       945  BUTH      O2             -1.3566986581       -2.0490051163       11.1949172559  BUTH      310             0.0000000000
     21112       945  BUTH      DO2            -1.3669131109       -2.0709198400       11.1889401519  BUTH      310             0.0000000000
     21113       945  BUTH      H1              0.1439051521        0.2293550298       14.5199067876  BUTH      310             0.0000000000
     21114       945  BUTH      H2             -0.3063116729        0.7221515190       12.8479288905  BUTH      310             0.0000000000
     21115       945  BUTH      H3             -1.0269574177        1.5538384749       14.2464636113  BUTH      310             0.0000000000
     21116       945  BUTH      H4             -2.6629002983       -0.0557380400       13.2475622861  BUTH      310             0.0000000000
     21117       945  BUTH      H5             -2.2752199564       -0.4736561993       14.9338737559  BUTH      310             0.0000000000
     21118       945  BUTH      H6             -2.3556621536       -2.4142949083       13.4549883503  BUTH      310             0.0000000000
     21119       945  BUTH      H7             -0.8450234013       -2.2464403622       14.3323145817  BUTH      310             0.0000000000
     21120       945  BUTH      H8             -0.5734172253       -2.2468985139       10.6580668111  BUTH      310             0.0000000000
     21121       945  BUTH      H9              0.7672371163       -2.5774635822       11.4488632645  BUTH      310             0.0000000000
     21122       945  BUTH      LPO11           0.3710221026       -2.6480363397       12.6256067386  BUTH      310             0.0000000000
     21123       945  BUTH      LPO12           0.4627174101       -2.5208489744       11.9867826366  BUTH      310             0.0000000000
     21124       945  BUTH      LPO21          -1.5024944922       -2.3662944109       11.2188145021  BUTH      310             0.0000000000
     21125       945  BUTH      LPO22          -1.4336310847       -1.7262987163       11.0833736272  BUTH      310             0.0000000000
     21126       946  BUTH      C1            -19.3597527777      -21.3404595190      -22.9441319783  BUTH      311             0.0000000000
     21127       946  BUTH      DC1           -19.3175981260      -21.3394764813      -22.9368129810  BUTH      311             0.0000000000
     21128       946  BUTH      C2            -18.8343291751      -19.9354420857      -23.2284654839  BUTH      311             0.0000000000
     21129       946  BUTH      DC2           -18.8959788039      -19.9198850954      -23.2475633630  BUTH      311             0.0000000000
     21130       946  BUTH      C3            -17.3052468911      -19.8952781552      -23.4454089280  BUTH      311             0.0000000000
     21131       946  BUTH      DC3           -17.3090200365      -19.9304059159      -23.4089512689  BUTH      311             0.0000000000
     21132       946  BUTH      C4            -16.5614305896      -20.4893841271      -22.4720476257  BUTH      311             0.0000000000
     21133       946  BUTH      DC4           -16.5711822876      -20.4971882037      -22.4777113089  BUTH      311             0.0000000000
     21134       946  BUTH      O1            -16.0987529398      -21.6084322192      -22.7580027675  BUTH      311             0.0000000000
     21135       946  BUTH      DO1           -16.0872275639      -21.5922353573      -22.7318158030  BUTH      311             0.0000000000
     21136       946  BUTH      O2            -16.0268372294      -19.8429434730      -21.5426571939  BUTH      311             0.0000000000
     21137       946  BUTH      DO2           -16.0389491945      -19.8370530842      -21.5541080334  BUTH      311             0.0000000000
     21138       946  BUTH      H1            -19.1294489662      -22.0255401644      -23.7879007059  BUTH      311             0.0000000000
     21139       946  BUTH      H2            -18.9071466056      -21.7647224381      -22.0224652113  BUTH      311             0.0000000000
     21140       946  BUTH      H3            -20.4619861765      -21.3349490416      -22.8049480384  BUTH      311             0.0000000000
     21141       946  BUTH      H4            -19.0942985889      -19.2697041289      -22.3778598897  BUTH      311             0.0000000000
     21142       946  BUTH      H5            -19.3314497692      -19.5217616984      -24.1318262389  BUTH      311             0.0000000000
     21143       946  BUTH      H6            -17.0462165903      -18.8210434032      -23.5604915183  BUTH      311             0.0000000000
     21144       946  BUTH      H7            -17.1398576517      -20.3142550828      -24.4610002504  BUTH      311             0.0000000000
     21145       946  BUTH      H8            -15.3289431214      -20.4680267259      -21.2914307203  BUTH      311             0.0000000000
     21146       946  BUTH      H9            -15.4880132200      -21.9701645458      -22.0983758134  BUTH      311             0.0000000000
     21147       946  BUTH      LPO11         -16.1949302448      -21.6984338933      -23.0822705961  BUTH      311             0.0000000000
     21148       946  BUTH      LPO12         -15.9135474752      -21.7337571171      -22.4887582581  BUTH      311             0.0000000000
     21149       946  BUTH      LPO21         -15.8361411350      -19.5967264067      -21.7023824451  BUTH      311             0.0000000000
     21150       946  BUTH      LPO22         -16.2444910019      -19.8792574455      -21.2709806754  BUTH      311             0.0000000000
     21151       947  BUTH      C1              6.4596775265       12.8409205466       27.1618641024  BUTH      312             0.0000000000
     21152       947  BUTH      DC1             6.4561851801       12.7808670669       27.2515287633  BUTH      312             0.0000000000
     21153       947  BUTH      C2              5.4971441645       12.6161126036       28.3174703155  BUTH      312             0.0000000000
     21154       947  BUTH      DC2             5.4651149664       12.6697757625       28.3592381938  BUTH      312             0.0000000000
     21155       947  BUTH      C3              6.0232912975       11.5480027637       29.2939566347  BUTH      312             0.0000000000
     21156       947  BUTH      DC3             6.0476502535       11.5183626102       29.2916244623  BUTH      312             0.0000000000
     21157       947  BUTH      C4              6.4191998907       10.3790279743       28.7105136401  BUTH      312             0.0000000000
     21158       947  BUTH      DC4             6.4198687020       10.3812122301       28.7243540730  BUTH      312             0.0000000000
     21159       947  BUTH      O1              7.6353681681       10.1496914086       28.8279289678  BUTH      312             0.0000000000
     21160       947  BUTH      DO1             7.6038462701       10.1099978312       28.8417025520  BUTH      312             0.0000000000
     21161       947  BUTH      O2              5.7072214892        9.3572019984       28.7812013543  BUTH      312             0.0000000000
     21162       947  BUTH      DO2             5.7069207631        9.3633597638       28.8045230578  BUTH      312             0.0000000000
     21163       947  BUTH      H1              7.4949506889       13.0487209081       27.5073340574  BUTH      312             0.0000000000
     21164       947  BUTH      H2              6.5027078327       11.9725850859       26.4701539604  BUTH      312             0.0000000000
     21165       947  BUTH      H3              6.1462139440       13.7227072099       26.5631038295  BUTH      312             0.0000000000
     21166       947  BUTH      H4              4.5151129484       12.2990138618       27.9059073447  BUTH      312             0.0000000000
     21167       947  BUTH      H5              5.3235314632       13.5746072504       28.8517620354  BUTH      312             0.0000000000
     21168       947  BUTH      H6              5.2048893281       11.3953376271       30.0296417402  BUTH      312             0.0000000000
     21169       947  BUTH      H7              6.8209550072       12.0692152773       29.8652631390  BUTH      312             0.0000000000
     21170       947  BUTH      H8              6.3736434037        8.7107941683       28.5002409481  BUTH      312             0.0000000000
     21171       947  BUTH      H9              7.9094590052        9.2762632880       28.5101892454  BUTH      312             0.0000000000
     21172       947  BUTH      LPO11           7.7893144580       10.4084989767       29.0063082899  BUTH      312             0.0000000000
     21173       947  BUTH      LPO12           7.7156377662        9.8467170353       28.6721620883  BUTH      312             0.0000000000
     21174       947  BUTH      LPO21           5.6863904286        9.2846902863       29.1229733814  BUTH      312             0.0000000000
     21175       947  BUTH      LPO22           5.5037480399        9.3686226166       28.4966523692  BUTH      312             0.0000000000
     21176       948  BUTH      C1            -19.6476646099       -2.1111926063       21.1325683920  BUTH      313             0.0000000000
     21177       948  BUTH      DC1           -19.7185920091       -2.1321235848       21.0776563208  BUTH      313             0.0000000000
     21178       948  BUTH      C2            -19.5552201378       -3.1765006211       20.0562956461  BUTH      313             0.0000000000
     21179       948  BUTH      DC2           -19.5265578953       -3.1970042991       20.0532874649  BUTH      313             0.0000000000
     21180       948  BUTH      C3            -20.4595010955       -2.8519255150       18.8527463612  BUTH      313             0.0000000000
     21181       948  BUTH      DC3           -20.5392968596       -2.8355619449       18.8731072341  BUTH      313             0.0000000000
     21182       948  BUTH      C4            -21.7556911532       -2.6157423508       19.1804029904  BUTH      313             0.0000000000
     21183       948  BUTH      DC4           -21.7864306656       -2.6213232212       19.1951807781  BUTH      313             0.0000000000
     21184       948  BUTH      O1            -22.2082405264       -1.4901678167       18.9318708968  BUTH      313             0.0000000000
     21185       948  BUTH      DO1           -22.2634257716       -1.5410888409       18.9230502061  BUTH      313             0.0000000000
     21186       948  BUTH      O2            -22.6115185624       -3.4735448725       19.0810833340  BUTH      313             0.0000000000
     21187       948  BUTH      DO2           -22.6144186444       -3.4933689916       19.0903999842  BUTH      313             0.0000000000
     21188       948  BUTH      H1            -19.4164931190       -1.1057391965       20.7203255224  BUTH      313             0.0000000000
     21189       948  BUTH      H2            -20.6532531395       -2.0737513455       21.6034302201  BUTH      313             0.0000000000
     21190       948  BUTH      H3            -18.9048758640       -2.3075518022       21.9350825319  BUTH      313             0.0000000000
     21191       948  BUTH      H4            -19.8308161528       -4.1606863528       20.4918944087  BUTH      313             0.0000000000
     21192       948  BUTH      H5            -18.5011585213       -3.2628810195       19.7159817671  BUTH      313             0.0000000000
     21193       948  BUTH      H6            -20.3356007893       -3.7209426943       18.1717332507  BUTH      313             0.0000000000
     21194       948  BUTH      H7            -19.9543789545       -2.0180905040       18.3199313866  BUTH      313             0.0000000000
     21195       948  BUTH      H8            -23.3174104272       -2.8507169296       18.8471986856  BUTH      313             0.0000000000
     21196       948  BUTH      H9            -23.1583427609       -1.3919863610       19.0950491627  BUTH      313             0.0000000000
     21197       948  BUTH      LPO11         -21.9606670896       -1.2914768091       18.7844623592  BUTH      313             0.0000000000
     21198       948  BUTH      LPO12         -22.5433074287       -1.4712462882       19.0312295741  BUTH      313             0.0000000000
     21199       948  BUTH      LPO21         -22.5500973667       -3.6285431597       18.7733448612  BUTH      313             0.0000000000
     21200       948  BUTH      LPO22         -22.6969625826       -3.5557746945       19.4103819459  BUTH      313             0.0000000000
     21201       949  BUTH      C1             22.2394313883       -0.4038216815       28.2151351377  BUTH      314             0.0000000000
     21202       949  BUTH      DC1            22.1839931362       -0.3960321956       28.1735245881  BUTH      314             0.0000000000
     21203       949  BUTH      C2             20.8021292287       -0.8345437790       27.9397943769  BUTH      314             0.0000000000
     21204       949  BUTH      DC2            20.7968339488       -0.9130602166       27.9560972002  BUTH      314             0.0000000000
     21205       949  BUTH      C3             20.1756776295       -0.0610883409       26.7645404861  BUTH      314             0.0000000000
     21206       949  BUTH      DC3            20.1978129510       -0.0367233130       26.7830725860  BUTH      314             0.0000000000
     21207       949  BUTH      C4             20.2923615938        1.2928480762       26.8607056736  BUTH      314             0.0000000000
     21208       949  BUTH      DC4            20.2811342653        1.2762939439       26.8745332444  BUTH      314             0.0000000000
     21209       949  BUTH      O1             21.0590021260        1.8213460818       26.0495814763  BUTH      314             0.0000000000
     21210       949  BUTH      DO1            20.9943408413        1.8421326021       26.0811551851  BUTH      314             0.0000000000
     21211       949  BUTH      O2             19.3640970233        2.0136390337       27.2180736324  BUTH      314             0.0000000000
     21212       949  BUTH      DO2            19.3504972954        2.0044238801       27.2265315020  BUTH      314             0.0000000000
     21213       949  BUTH      H1             22.8909027584       -0.5384632843       27.3253162270  BUTH      314             0.0000000000
     21214       949  BUTH      H2             22.2975215441        0.6687433364       28.4989498949  BUTH      314             0.0000000000
     21215       949  BUTH      H3             22.6825287009       -0.9868546410       29.0506339944  BUTH      314             0.0000000000
     21216       949  BUTH      H4             20.1968049842       -0.6456489654       28.8520565697  BUTH      314             0.0000000000
     21217       949  BUTH      H5             20.7596245145       -1.9264558837       27.7391895258  BUTH      314             0.0000000000
     21218       949  BUTH      H6             19.1150786231       -0.3867694175       26.7063805001  BUTH      314             0.0000000000
     21219       949  BUTH      H7             20.6340096289       -0.4913504981       25.8485015924  BUTH      314             0.0000000000
     21220       949  BUTH      H8             19.6818436056        2.7844472411       26.7222996746  BUTH      314             0.0000000000
     21221       949  BUTH      H9             21.0389603220        2.7901284301       26.0450995250  BUTH      314             0.0000000000
     21222       949  BUTH      LPO11          21.1999216675        1.5775756262       25.8416929297  BUTH      314             0.0000000000
     21223       949  BUTH      LPO12          21.0667140661        2.1675784323       26.1002143259  BUTH      314             0.0000000000
     21224       949  BUTH      LPO21          19.0902767384        1.9137547545       27.0243068078  BUTH      314             0.0000000000
     21225       949  BUTH      LPO22          19.4404803147        2.1055978177       27.5470252624  BUTH      314             0.0000000000
     21226       950  BUTH      C1             -1.6831479333      -22.1541918517       13.2689752937  BUTH      315             0.0000000000
     21227       950  BUTH      DC1            -1.7153929528      -22.1084092013       13.2705535649  BUTH      315             0.0000000000
     21228       950  BUTH      C2             -3.1535294431      -22.0759003124       13.6647246746  BUTH      315             0.0000000000
     21229       950  BUTH      DC2            -3.1763043787      -22.1273111416       13.6281970880  BUTH      315             0.0000000000
     21230       950  BUTH      C3             -3.6120457817      -20.6248771049       13.9181643903  BUTH      315             0.0000000000
     21231       950  BUTH      DC3            -3.5725011088      -20.6159384472       13.9365738351  BUTH      315             0.0000000000
     21232       950  BUTH      C4             -2.8984888567      -19.9465336886       14.8518005287  BUTH      315             0.0000000000
     21233       950  BUTH      DC4            -2.8992072972      -19.9485006965       14.8452568620  BUTH      315             0.0000000000
     21234       950  BUTH      O1             -2.1483124999      -19.0531991735       14.4267178653  BUTH      315             0.0000000000
     21235       950  BUTH      DO1            -2.1717090357      -19.0459674065       14.4834198897  BUTH      315             0.0000000000
     21236       950  BUTH      O2             -3.3423589269      -19.7415093933       15.9612660237  BUTH      315             0.0000000000
     21237       950  BUTH      DO2            -3.3511169347      -19.7358073008       15.9489254619  BUTH      315             0.0000000000
     21238       950  BUTH      H1             -1.4627848794      -21.5138714038       12.3882080994  BUTH      315             0.0000000000
     21239       950  BUTH      H2             -1.0225080541      -21.8064847598       14.0917606420  BUTH      315             0.0000000000
     21240       950  BUTH      H3             -1.3887430270      -23.1969746434       13.0235149089  BUTH      315             0.0000000000
     21241       950  BUTH      H4             -3.3126086092      -22.6780859329       14.5847177712  BUTH      315             0.0000000000
     21242       950  BUTH      H5             -3.7859008956      -22.5351980354       12.8751216428  BUTH      315             0.0000000000
     21243       950  BUTH      H6             -4.6897236871      -20.6896067479       14.1803502144  BUTH      315             0.0000000000
     21244       950  BUTH      H7             -3.6005315754      -20.1229225242       12.9270892055  BUTH      315             0.0000000000
     21245       950  BUTH      H8             -2.6975768257      -19.0618966226       16.2128262028  BUTH      315             0.0000000000
     21246       950  BUTH      H9             -1.7421174476      -18.5058492249       15.1154664504  BUTH      315             0.0000000000
     21247       950  BUTH      LPO11          -2.1709058562      -19.0337944944       14.0779873122  BUTH      315             0.0000000000
     21248       950  BUTH      LPO12          -1.9810618178      -18.9003411830       14.6934792645  BUTH      315             0.0000000000
     21249       950  BUTH      LPO21          -3.6290049495      -19.5475268713       15.9092579581  BUTH      315             0.0000000000
     21250       950  BUTH      LPO22          -3.2336160424      -20.0130472460       16.1534695086  BUTH      315             0.0000000000
     21251       951  BUTH      C1            -22.3092916173       19.9371708462      -19.3997884697  BUTH      316             0.0000000000
     21252       951  BUTH      DC1           -22.2866292856       19.9804232589      -19.4492342733  BUTH      316             0.0000000000
     21253       951  BUTH      C2            -20.7892168207       20.0075238564      -19.4821196583  BUTH      316             0.0000000000
     21254       951  BUTH      DC2           -20.7839272854       20.0005407717      -19.4547287837  BUTH      316             0.0000000000
     21255       951  BUTH      C3            -20.2956682503       21.3721987263      -20.0103347613  BUTH      316             0.0000000000
     21256       951  BUTH      DC3           -20.3378301259       21.4046864328      -20.0775775222  BUTH      316             0.0000000000
     21257       951  BUTH      C4            -20.8966076683       21.7526484355      -21.1676740791  BUTH      316             0.0000000000
     21258       951  BUTH      DC4           -20.8947004612       21.7730281009      -21.1992912985  BUTH      316             0.0000000000
     21259       951  BUTH      O1            -21.5718412555       22.7943048385      -21.1337627763  BUTH      316             0.0000000000
     21260       951  BUTH      DO1           -21.5419142877       22.7916493610      -21.2136436812  BUTH      316             0.0000000000
     21261       951  BUTH      O2            -20.3726448270       21.6368123827      -22.2658241060  BUTH      316             0.0000000000
     21262       951  BUTH      DO2           -20.3464350111       21.6620503434      -22.2857384369  BUTH      316             0.0000000000
     21263       951  BUTH      H1            -22.7101141733       20.7086288103      -18.7080407641  BUTH      316             0.0000000000
     21264       951  BUTH      H2            -22.7842300893       20.0816391866      -20.3937116803  BUTH      316             0.0000000000
     21265       951  BUTH      H3            -22.6345220961       18.9485918072      -19.0108699440  BUTH      316             0.0000000000
     21266       951  BUTH      H4            -20.4163067325       19.1991067369      -20.1467404727  BUTH      316             0.0000000000
     21267       951  BUTH      H5            -20.3573491506       19.8124399412      -18.4772547008  BUTH      316             0.0000000000
     21268       951  BUTH      H6            -19.1946680605       21.2613625952      -20.1095059974  BUTH      316             0.0000000000
     21269       951  BUTH      H7            -20.4247109801       22.0784480071      -19.1624662997  BUTH      316             0.0000000000
     21270       951  BUTH      H8            -21.0182298456       22.2376371443      -22.6697171483  BUTH      316             0.0000000000
     21271       951  BUTH      H9            -21.8909842597       23.0977470792      -21.9969148773  BUTH      316             0.0000000000
     21272       951  BUTH      LPO11         -21.5644712673       22.9313108047      -20.8117766764  BUTH      316             0.0000000000
     21273       951  BUTH      LPO12         -21.7093905883       22.8581214475      -21.4492110628  BUTH      316             0.0000000000
     21274       951  BUTH      LPO21         -20.0854749772       21.8365016115      -22.2532666665  BUTH      316             0.0000000000
     21275       951  BUTH      LPO22         -20.4776787392       21.3255161869      -22.3864995211  BUTH      316             0.0000000000
     21276       952  BUTH      C1            -17.7750630456      -10.2454652460       24.2446027422  BUTH      317             0.0000000000
     21277       952  BUTH      DC1           -17.8037346101      -10.2711316469       24.2818627112  BUTH      317             0.0000000000
     21278       952  BUTH      C2            -18.7652465276      -10.0985146107       25.3956841579  BUTH      317             0.0000000000
     21279       952  BUTH      DC2           -18.8013850797      -10.0285280135       25.3818791951  BUTH      317             0.0000000000
     21280       952  BUTH      C3            -18.4252845326      -11.0295073288       26.5759225237  BUTH      317             0.0000000000
     21281       952  BUTH      DC3           -18.4213984573      -11.0697099706       26.5425026489  BUTH      317             0.0000000000
     21282       952  BUTH      C4            -18.2670086453      -12.3298070088       26.2138455213  BUTH      317             0.0000000000
     21283       952  BUTH      DC4           -18.2725410195      -12.3301986072       26.2138031757  BUTH      317             0.0000000000
     21284       952  BUTH      O1            -17.1309205111      -12.7797635968       26.3896193965  BUTH      317             0.0000000000
     21285       952  BUTH      DO1           -17.1874270141      -12.8232947940       26.3995335303  BUTH      317             0.0000000000
     21286       952  BUTH      O2            -19.1403243836      -13.1749766970       26.3869856180  BUTH      317             0.0000000000
     21287       952  BUTH      DO2           -19.1514341629      -13.1724988228       26.3934885694  BUTH      317             0.0000000000
     21288       952  BUTH      H1            -16.7356727201      -10.0358494358       24.5763405371  BUTH      317             0.0000000000
     21289       952  BUTH      H2            -17.7914068852      -11.2704377598       23.8162509860  BUTH      317             0.0000000000
     21290       952  BUTH      H3            -18.0049104844       -9.5390741773       23.4184654576  BUTH      317             0.0000000000
     21291       952  BUTH      H4            -19.7870560228      -10.3435522161       25.0348754434  BUTH      317             0.0000000000
     21292       952  BUTH      H5            -18.7676046133       -9.0498073781       25.7624655367  BUTH      317             0.0000000000
     21293       952  BUTH      H6            -19.2388562656      -10.8943824903       27.3203439861  BUTH      317             0.0000000000
     21294       952  BUTH      H7            -17.5361967086      -10.5724429707       27.0606245082  BUTH      317             0.0000000000
     21295       952  BUTH      H8            -18.5180114244      -13.9157870363       26.4564595116  BUTH      317             0.0000000000
     21296       952  BUTH      H9            -17.0390263342      -13.7248450245       26.1963901148  BUTH      317             0.0000000000
     21297       952  BUTH      LPO11         -16.9236681754      -12.5321559052       26.5246634649  BUTH      317             0.0000000000
     21298       952  BUTH      LPO12         -17.1178489404      -13.1146322940       26.2886635169  BUTH      317             0.0000000000
     21299       952  BUTH      LPO21         -19.2401865632      -13.1366233403       26.7202371223  BUTH      317             0.0000000000
     21300       952  BUTH      LPO22         -19.2787267129      -13.2299552555       26.0702488923  BUTH      317             0.0000000000
     21301       953  BUTH      C1            -16.8320115604       15.8841211612       -6.9280007112  BUTH      318             0.0000000000
     21302       953  BUTH      DC1           -16.9225268689       15.8875149190       -6.9344066439  BUTH      318             0.0000000000
     21303       953  BUTH      C2            -18.1226487566       15.6639983869       -7.6937004404  BUTH      318             0.0000000000
     21304       953  BUTH      DC2           -18.1441863686       15.5955718496       -7.7247382995  BUTH      318             0.0000000000
     21305       953  BUTH      C3            -18.7272577916       17.0177709229       -8.0969201316  BUTH      318             0.0000000000
     21306       953  BUTH      DC3           -18.7568684142       17.0253650062       -8.0385129867  BUTH      318             0.0000000000
     21307       953  BUTH      C4            -18.9405454707       17.8433631084       -7.0402691169  BUTH      318             0.0000000000
     21308       953  BUTH      DC4           -18.9830723540       17.8217927938       -7.0186464414  BUTH      318             0.0000000000
     21309       953  BUTH      O1            -18.7030262621       19.0426618239       -7.2052696491  BUTH      318             0.0000000000
     21310       953  BUTH      DO1           -18.8176378880       19.0110674667       -7.1381915787  BUTH      318             0.0000000000
     21311       953  BUTH      O2            -19.9736094516       17.7591201951       -6.4001895951  BUTH      318             0.0000000000
     21312       953  BUTH      DO2           -20.0258238041       17.7248410684       -6.3824663657  BUTH      318             0.0000000000
     21313       953  BUTH      H1            -16.0516311531       16.3138243873       -7.5918399675  BUTH      318             0.0000000000
     21314       953  BUTH      H2            -16.9574374075       16.5952750660       -6.0836965713  BUTH      318             0.0000000000
     21315       953  BUTH      H3            -16.4138466433       14.9340025979       -6.5321044884  BUTH      318             0.0000000000
     21316       953  BUTH      H4            -18.8403181052       15.0973581739       -7.0626770058  BUTH      318             0.0000000000
     21317       953  BUTH      H5            -17.9178910447       15.0568400215       -8.6013093866  BUTH      318             0.0000000000
     21318       953  BUTH      H6            -19.6708442556       16.7605559964       -8.6239932468  BUTH      318             0.0000000000
     21319       953  BUTH      H7            -18.0676240582       17.4421464365       -8.8837554138  BUTH      318             0.0000000000
     21320       953  BUTH      H8            -19.9308140609       18.7216616846       -6.2880181393  BUTH      318             0.0000000000
     21321       953  BUTH      H9            -18.9217608906       19.6125554462       -6.4527157165  BUTH      318             0.0000000000
     21322       953  BUTH      LPO11         -18.5893897322       19.0984003688       -7.5315823116  BUTH      318             0.0000000000
     21323       953  BUTH      LPO12         -18.7705685016       19.2196658166       -6.9109779019  BUTH      318             0.0000000000
     21324       953  BUTH      LPO21         -20.2288367897       17.7202881474       -6.6365179217  BUTH      318             0.0000000000
     21325       953  BUTH      LPO22         -19.8802573524       17.6404516625       -6.0844315153  BUTH      318             0.0000000000
     21326       954  BUTH      C1             18.1632164205      -19.9621552107      -16.6683467473  BUTH      319             0.0000000000
     21327       954  BUTH      DC1            18.1655414167      -19.8735881925      -16.6319595764  BUTH      319             0.0000000000
     21328       954  BUTH      C2             19.2503183946      -19.3149100107      -15.8380726588  BUTH      319             0.0000000000
     21329       954  BUTH      DC2            19.2971162563      -19.3630839548      -15.8118231459  BUTH      319             0.0000000000
     21330       954  BUTH      C3             18.7479826522      -18.0284871279      -15.1562456406  BUTH      319             0.0000000000
     21331       954  BUTH      DC3            18.7119275198      -17.9983750273      -15.1981635365  BUTH      319             0.0000000000
     21332       954  BUTH      C4             18.1301944718      -17.1396940616      -15.9826364422  BUTH      319             0.0000000000
     21333       954  BUTH      DC4            18.1117698764      -17.1219832073      -15.9780022805  BUTH      319             0.0000000000
     21334       954  BUTH      O1             16.9092193155      -16.9875687301      -15.7924450920  BUTH      319             0.0000000000
     21335       954  BUTH      DO1            16.9196537042      -16.9410115933      -15.8138070743  BUTH      319             0.0000000000
     21336       954  BUTH      O2             18.6865712170      -16.1094786468      -16.4028322969  BUTH      319             0.0000000000
     21337       954  BUTH      DO2            18.6847056766      -16.0879696448      -16.3774783871  BUTH      319             0.0000000000
     21338       954  BUTH      H1             17.2714266828      -20.1870800120      -16.0450964771  BUTH      319             0.0000000000
     21339       954  BUTH      H2             17.8544857472      -19.3159437217      -17.5177094988  BUTH      319             0.0000000000
     21340       954  BUTH      H3             18.5104054088      -20.9254690785      -17.0994003387  BUTH      319             0.0000000000
     21341       954  BUTH      H4             20.1134134693      -19.0760956351      -16.4956101770  BUTH      319             0.0000000000
     21342       954  BUTH      H5             19.5930392300      -20.0323897218      -15.0621304618  BUTH      319             0.0000000000
     21343       954  BUTH      H6             19.6466077075      -17.5965134342      -14.6661510184  BUTH      319             0.0000000000
     21344       954  BUTH      H7             18.1221641795      -18.3873796589      -14.3113383141  BUTH      319             0.0000000000
     21345       954  BUTH      H8             17.9028759051      -15.7212613392      -16.8223665389  BUTH      319             0.0000000000
     21346       954  BUTH      H9             16.5208982295      -16.2507852520      -16.2877408023  BUTH      319             0.0000000000
     21347       954  BUTH      LPO11          16.8027879477      -17.1916957845      -15.5288080127  BUTH      319             0.0000000000
     21348       954  BUTH      LPO12          16.7808618886      -16.7541885634      -16.0195091111  BUTH      319             0.0000000000
     21349       954  BUTH      LPO21          18.7206855278      -15.9033330071      -16.1220473453  BUTH      319             0.0000000000
     21350       954  BUTH      LPO22          18.8683718765      -16.2121843248      -16.6837238488  BUTH      319             0.0000000000
     21351       955  BUTH      C1            -24.8618624409        4.0893278809       -9.0324945405  BUTH      320             0.0000000000
     21352       955  BUTH      DC1           -24.9134356269        4.0559824026       -9.0707261786  BUTH      320             0.0000000000
     21353       955  BUTH      C2            -26.2689491179        3.5033352123       -9.0898628881  BUTH      320             0.0000000000
     21354       955  BUTH      DC2           -26.2955321959        3.4706806251       -9.0257455956  BUTH      320             0.0000000000
     21355       955  BUTH      C3            -26.6169626866        2.9329294517      -10.4820682111  BUTH      320             0.0000000000
     21356       955  BUTH      DC3           -26.6108690155        2.9497197600      -10.4945965917  BUTH      320             0.0000000000
     21357       955  BUTH      C4            -26.4505571650        3.7895545978      -11.5264222755  BUTH      320             0.0000000000
     21358       955  BUTH      DC4           -26.4654512534        3.7853742929      -11.5080262158  BUTH      320             0.0000000000
     21359       955  BUTH      O1            -25.5122293843        3.5148754303      -12.2823217325  BUTH      320             0.0000000000
     21360       955  BUTH      DO1           -25.5805600111        3.5437143320      -12.2930446338  BUTH      320             0.0000000000
     21361       955  BUTH      O2            -27.4131175359        4.3105667144      -12.0969764993  BUTH      320             0.0000000000
     21362       955  BUTH      DO2           -27.4319500245        4.3016764499      -12.0883393089  BUTH      320             0.0000000000
     21363       955  BUTH      H1            -24.0923555441        3.3399437763       -9.3164022713  BUTH      320             0.0000000000
     21364       955  BUTH      H2            -24.7444621376        4.9558535853       -9.7178202838  BUTH      320             0.0000000000
     21365       955  BUTH      H3            -24.6183115997        4.4501401011       -8.0103308891  BUTH      320             0.0000000000
     21366       955  BUTH      H4            -26.9967581455        4.3022753338       -8.8323561861  BUTH      320             0.0000000000
     21367       955  BUTH      H5            -26.3663066254        2.7069649504       -8.3213338238  BUTH      320             0.0000000000
     21368       955  BUTH      H6            -27.6666098117        2.5763605525      -10.4084439395  BUTH      320             0.0000000000
     21369       955  BUTH      H7            -26.0175010748        2.0022336396      -10.5757276011  BUTH      320             0.0000000000
     21370       955  BUTH      H8            -26.9289862816        4.4909400523      -12.9179408028  BUTH      320             0.0000000000
     21371       955  BUTH      H9            -25.4636699442        4.0607456863      -13.0814641756  BUTH      320             0.0000000000
     21372       955  BUTH      LPO11         -25.3493656096        3.2258332253      -12.1708318467  BUTH      320             0.0000000000
     21373       955  BUTH      LPO12         -25.4933143267        3.7507050379      -12.5402492742  BUTH      320             0.0000000000
     21374       955  BUTH      LPO21         -27.6175373308        4.0437128833      -12.1944525493  BUTH      320             0.0000000000
     21375       955  BUTH      LPO22         -27.4385000285        4.6315299141      -11.9597236178  BUTH      320             0.0000000000
     21376       956  BUTH      C1             -0.9515210313      -10.9357081614      -11.2344900328  BUTH      321             0.0000000000
     21377       956  BUTH      DC1            -0.9288965426      -10.9566354812      -11.2374249112  BUTH      321             0.0000000000
     21378       956  BUTH      C2             -1.8524973175      -11.4589979262      -10.1150850417  BUTH      321             0.0000000000
     21379       956  BUTH      DC2            -1.8825235343      -11.3513261931      -10.1156985490  BUTH      321             0.0000000000
     21380       956  BUTH      C3             -1.3491834327      -12.7428736387       -9.4055235279  BUTH      321             0.0000000000
     21381       956  BUTH      DC3            -1.3480225410      -12.7067175279       -9.4868081552  BUTH      321             0.0000000000
     21382       956  BUTH      C4             -1.0520955121      -13.8739170132      -10.1068135532  BUTH      321             0.0000000000
     21383       956  BUTH      DC4            -1.0354568228      -13.8401251902      -10.1203400989  BUTH      321             0.0000000000
     21384       956  BUTH      O1              0.1080968936      -13.8795758246      -10.5739999519  BUTH      321             0.0000000000
     21385       956  BUTH      DO1             0.1062381501      -13.8882217278      -10.5926803899  BUTH      321             0.0000000000
     21386       956  BUTH      O2             -1.9606965601      -14.5521235941      -10.6895935433  BUTH      321             0.0000000000
     21387       956  BUTH      DO2            -1.9540878368      -14.5191870088      -10.6997949086  BUTH      321             0.0000000000
     21388       956  BUTH      H1              0.0816145862      -10.7585029620      -10.8663187217  BUTH      321             0.0000000000
     21389       956  BUTH      H2             -0.9017226074      -11.6739125041      -12.0632816025  BUTH      321             0.0000000000
     21390       956  BUTH      H3             -1.3376686655       -9.9827603310      -11.6553242485  BUTH      321             0.0000000000
     21391       956  BUTH      H4             -2.8675063040      -11.6553278021      -10.5219416988  BUTH      321             0.0000000000
     21392       956  BUTH      H5             -1.9564400640      -10.6760868333       -9.3336970932  BUTH      321             0.0000000000
     21393       956  BUTH      H6             -2.1236139849      -12.9907582834       -8.6484690234  BUTH      321             0.0000000000
     21394       956  BUTH      H7             -0.4889914807      -12.4018299536       -8.7906414162  BUTH      321             0.0000000000
     21395       956  BUTH      H8             -1.5718632923      -15.4398206823      -10.7308557469  BUTH      321             0.0000000000
     21396       956  BUTH      H9              0.3190309192      -14.6604510867      -11.1075743722  BUTH      321             0.0000000000
     21397       956  BUTH      LPO11           0.2733719208      -13.5833940027      -10.4876258022  BUTH      321             0.0000000000
     21398       956  BUTH      LPO12           0.1649041680      -14.1768408478      -10.7498022259  BUTH      321             0.0000000000
     21399       956  BUTH      LPO21          -2.2034013002      -14.6064971823      -10.4433458590  BUTH      321             0.0000000000
     21400       956  BUTH      LPO22          -1.9365210779      -14.4624651329      -11.0270500685  BUTH      321             0.0000000000
     21401       957  BUTH      C1             19.7848796268        1.6543033659       19.6931621277  BUTH      322             0.0000000000
     21402       957  BUTH      DC1            19.8014065524        1.6416197513       19.6841701189  BUTH      322             0.0000000000
     21403       957  BUTH      C2             18.9808117269        2.2429381625       18.5545553919  BUTH      322             0.0000000000
     21404       957  BUTH      DC2            18.9493280124        2.2200020705       18.6101175103  BUTH      322             0.0000000000
     21405       957  BUTH      C3             19.7228519037        2.2589744789       17.1980783009  BUTH      322             0.0000000000
     21406       957  BUTH      DC3            19.7565821114        2.2641301683       17.2260380890  BUTH      322             0.0000000000
     21407       957  BUTH      C4             20.9618622348        2.8148437586       17.1949769471  BUTH      322             0.0000000000
     21408       957  BUTH      DC4            20.9416725732        2.8171247168       17.1927862098  BUTH      322             0.0000000000
     21409       957  BUTH      O1             21.8128972840        2.1473664365       16.5935220313  BUTH      322             0.0000000000
     21410       957  BUTH      DO1            21.7997648012        2.2134829775       16.5847850275  BUTH      322             0.0000000000
     21411       957  BUTH      O2             21.1104885874        4.0302308041       17.0849746646  BUTH      322             0.0000000000
     21412       957  BUTH      DO2            21.0980828502        4.0264142199       17.0854021040  BUTH      322             0.0000000000
     21413       957  BUTH      H1             20.1520979519        0.6382027053       19.4342970091  BUTH      322             0.0000000000
     21414       957  BUTH      H2             20.6691646134        2.2864924296       19.9227226873  BUTH      322             0.0000000000
     21415       957  BUTH      H3             19.1635357226        1.5882419307       20.6117962448  BUTH      322             0.0000000000
     21416       957  BUTH      H4             18.6672818579        3.2780522710       18.8086396399  BUTH      322             0.0000000000
     21417       957  BUTH      H5             18.0493030112        1.6460098993       18.4531198897  BUTH      322             0.0000000000
     21418       957  BUTH      H6             19.0531030845        2.8255896605       16.5163857331  BUTH      322             0.0000000000
     21419       957  BUTH      H7             19.6780175401        1.2187910468       16.8103550652  BUTH      322             0.0000000000
     21420       957  BUTH      H8             21.9882375385        3.9921935968       16.6738664675  BUTH      322             0.0000000000
     21421       957  BUTH      H9             22.6957118798        2.5466834523       16.5814675586  BUTH      322             0.0000000000
     21422       957  BUTH      LPO11          21.6675807731        1.8561449846       16.4647851774  BUTH      322             0.0000000000
     21423       957  BUTH      LPO12          22.1228531887        2.3094591743       16.6059027224  BUTH      322             0.0000000000
     21424       957  BUTH      LPO21          20.9117681276        4.1217072063       16.8117673319  BUTH      322             0.0000000000
     21425       957  BUTH      LPO22          21.1913411240        4.1413794665       17.4068579388  BUTH      322             0.0000000000
     21426       958  BUTH      C1              4.6504023579       23.7217984049       -1.1782401828  BUTH      323             0.0000000000
     21427       958  BUTH      DC1             4.6412583404       23.7546889909       -1.1797937191  BUTH      323             0.0000000000
     21428       958  BUTH      C2              4.8274007886       24.4254229348        0.1648764548  BUTH      323             0.0000000000
     21429       958  BUTH      DC2             4.8970818224       24.3981311456        0.1690877925  BUTH      323             0.0000000000
     21430       958  BUTH      C3              3.5329840357       25.1233682570        0.6423594205  BUTH      323             0.0000000000
     21431       958  BUTH      DC3             3.5434024027       25.1488183415        0.5932998827  BUTH      323             0.0000000000
     21432       958  BUTH      C4              2.9557226031       25.9507038030       -0.2682777015  BUTH      323             0.0000000000
     21433       958  BUTH      DC4             2.9730568090       25.9550470838       -0.2636525651  BUTH      323             0.0000000000
     21434       958  BUTH      O1              1.8230441217       25.6359551197       -0.6457273700  BUTH      323             0.0000000000
     21435       958  BUTH      DO1             1.8561014264       25.7094606117       -0.6323040433  BUTH      323             0.0000000000
     21436       958  BUTH      O2              3.1534001473       27.1586905542       -0.2821073687  BUTH      323             0.0000000000
     21437       958  BUTH      DO2             3.1668683614       27.1676797486       -0.2723547051  BUTH      323             0.0000000000
     21438       958  BUTH      H1              3.8374714828       22.9671728325       -1.1149579912  BUTH      323             0.0000000000
     21439       958  BUTH      H2              4.3773152086       24.4391824960       -1.9814241442  BUTH      323             0.0000000000
     21440       958  BUTH      H3              5.5799227155       23.1935558762       -1.4803539627  BUTH      323             0.0000000000
     21441       958  BUTH      H4              5.6401863339       25.1787949382        0.0865739383  BUTH      323             0.0000000000
     21442       958  BUTH      H5              5.1296220643       23.6825628695        0.9337341944  BUTH      323             0.0000000000
     21443       958  BUTH      H6              3.8038864295       25.6472284894        1.5839024894  BUTH      323             0.0000000000
     21444       958  BUTH      H7              2.8531602830       24.3130083929        0.9821793081  BUTH      323             0.0000000000
     21445       958  BUTH      H8              2.2948184293       27.3511575416       -0.6903890022  BUTH      323             0.0000000000
     21446       958  BUTH      H9              1.3977159478       26.2815929302       -1.2298581453  BUTH      323             0.0000000000
     21447       958  BUTH      LPO11           1.7211907942       25.3415611596       -0.4861714363  BUTH      323             0.0000000000
     21448       958  BUTH      LPO12           1.7052666220       25.8693180680       -0.8784722839  BUTH      323             0.0000000000
     21449       958  BUTH      LPO21           3.1006302553       27.2644899133        0.0473191544  BUTH      323             0.0000000000
     21450       958  BUTH      LPO22           3.3728238003       27.2131171871       -0.5492983157  BUTH      323             0.0000000000
     21451       959  BUTH      C1             -1.7348905011       26.6724920260       -8.4339323263  BUTH      324             0.0000000000
     21452       959  BUTH      DC1            -1.7697671712       26.6304272892       -8.4362248852  BUTH      324             0.0000000000
     21453       959  BUTH      C2             -2.6610047454       25.5080556931       -8.7599967088  BUTH      324             0.0000000000
     21454       959  BUTH      DC2            -2.6734253705       25.5083096601       -8.8748362499  BUTH      324             0.0000000000
     21455       959  BUTH      C3             -3.2708692447       24.8830464743       -7.4891413611  BUTH      324             0.0000000000
     21456       959  BUTH      DC3            -3.2259409641       24.8942477920       -7.5204102641  BUTH      324             0.0000000000
     21457       959  BUTH      C4             -2.3701747247       24.5192720600       -6.5338115471  BUTH      324             0.0000000000
     21458       959  BUTH      DC4            -2.3831681248       24.5126134369       -6.5794468147  BUTH      324             0.0000000000
     21459       959  BUTH      O1             -2.4645216083       25.1149438310       -5.4598596244  BUTH      324             0.0000000000
     21460       959  BUTH      DO1            -2.4496083090       25.0501598066       -5.4970548217  BUTH      324             0.0000000000
     21461       959  BUTH      O2             -1.8592590524       23.3895428383       -6.4965280654  BUTH      324             0.0000000000
     21462       959  BUTH      DO2            -1.8595491392       23.3772829540       -6.5298411843  BUTH      324             0.0000000000
     21463       959  BUTH      H1             -2.2644943055       27.4567729334       -7.8519149124  BUTH      324             0.0000000000
     21464       959  BUTH      H2             -0.8777772549       26.3363774885       -7.8120763128  BUTH      324             0.0000000000
     21465       959  BUTH      H3             -1.3208815185       27.1438071373       -9.3508726887  BUTH      324             0.0000000000
     21466       959  BUTH      H4             -2.0618164608       24.7373063650       -9.2903172474  BUTH      324             0.0000000000
     21467       959  BUTH      H5             -3.4820302034       25.8500730382       -9.4257762015  BUTH      324             0.0000000000
     21468       959  BUTH      H6             -3.8777332737       24.0128019691       -7.8188557093  BUTH      324             0.0000000000
     21469       959  BUTH      H7             -4.0311663801       25.6094961022       -7.1306163185  BUTH      324             0.0000000000
     21470       959  BUTH      H8             -1.6481515253       23.4273968792       -5.5505361605  BUTH      324             0.0000000000
     21471       959  BUTH      H9             -1.8631339001       24.7944969805       -4.7709418932  BUTH      324             0.0000000000
     21472       959  BUTH      LPO11          -2.7267809106       25.3462924354       -5.4739266648  BUTH      324             0.0000000000
     21473       959  BUTH      LPO12          -2.2206010815       24.9993795585       -5.2370420410  BUTH      324             0.0000000000
     21474       959  BUTH      LPO21          -2.1290163022       23.1665422922       -6.4978632109  BUTH      324             0.0000000000
     21475       959  BUTH      LPO22          -1.5419538528       23.4273709960       -6.6393091595  BUTH      324             0.0000000000
     21476       960  BUTH      C1             -1.9281828301       -8.1459734627      -15.5958351095  BUTH      325             0.0000000000
     21477       960  BUTH      DC1            -1.9265223552       -8.1327751861      -15.5683422751  BUTH      325             0.0000000000
     21478       960  BUTH      C2             -2.7922771240       -6.9061831109      -15.8036469993  BUTH      325             0.0000000000
     21479       960  BUTH      DC2            -2.8008566284       -6.9281789987      -15.8675191563  BUTH      325             0.0000000000
     21480       960  BUTH      C3             -2.5113436877       -5.8084265856      -14.7517355912  BUTH      325             0.0000000000
     21481       960  BUTH      DC3            -2.5302566629       -5.8528534962      -14.7166406886  BUTH      325             0.0000000000
     21482       960  BUTH      C4             -2.6919787016       -6.1952558421      -13.4580110544  BUTH      325             0.0000000000
     21483       960  BUTH      DC4            -2.6927795146       -6.1946562903      -13.4556746483  BUTH      325             0.0000000000
     21484       960  BUTH      O1             -1.6814996689       -6.3285550977      -12.7484825832  BUTH      325             0.0000000000
     21485       960  BUTH      DO1            -1.7448654636       -6.3192866645      -12.7016503303  BUTH      325             0.0000000000
     21486       960  BUTH      O2             -3.6898728738       -5.8999965489      -12.8185482474  BUTH      325             0.0000000000
     21487       960  BUTH      DO2            -3.6944371382       -5.8954059845      -12.8172187309  BUTH      325             0.0000000000
     21488       960  BUTH      H1             -0.8506983414       -7.8802828733      -15.6483392782  BUTH      325             0.0000000000
     21489       960  BUTH      H2             -2.1124398366       -8.6029609454      -14.6000777112  BUTH      325             0.0000000000
     21490       960  BUTH      H3             -2.1361451253       -8.9147651182      -16.3704524829  BUTH      325             0.0000000000
     21491       960  BUTH      H4             -3.8653713284       -7.1904677517      -15.7592389902  BUTH      325             0.0000000000
     21492       960  BUTH      H5             -2.6018994952       -6.4886193056      -16.8154364187  BUTH      325             0.0000000000
     21493       960  BUTH      H6             -3.1844064709       -4.9673650043      -15.0236232679  BUTH      325             0.0000000000
     21494       960  BUTH      H7             -1.4957131272       -5.4195407240      -14.9788552761  BUTH      325             0.0000000000
     21495       960  BUTH      H8             -3.2346011785       -5.9559097112      -11.9638545001  BUTH      325             0.0000000000
     21496       960  BUTH      H9             -1.8614293822       -6.4724525927      -11.8072707000  BUTH      325             0.0000000000
     21497       960  BUTH      LPO11          -1.3942200055       -6.2544596492      -12.9341711923  BUTH      325             0.0000000000
     21498       960  BUTH      LPO12          -1.7739756251       -6.4283484461      -12.4260085763  BUTH      325             0.0000000000
     21499       960  BUTH      LPO21          -3.7249005916       -5.5539365186      -12.8574778562  BUTH      325             0.0000000000
     21500       960  BUTH      LPO22          -3.8851855707       -6.1903924524      -12.8137347607  BUTH      325             0.0000000000
     21501       961  BUTH      C1             13.6228284513      -14.1652262270      -17.8523600180  BUTH      326             0.0000000000
     21502       961  BUTH      DC1            13.6267920233      -14.1435172577      -17.8637803531  BUTH      326             0.0000000000
     21503       961  BUTH      C2             14.0161048450      -12.9014109894      -18.6179068422  BUTH      326             0.0000000000
     21504       961  BUTH      DC2            13.9095130639      -12.8508163193      -18.6069217482  BUTH      326             0.0000000000
     21505       961  BUTH      C3             15.2700888299      -13.0820398901      -19.5094359521  BUTH      326             0.0000000000
     21506       961  BUTH      DC3            15.2216653341      -13.0914482940      -19.4591755469  BUTH      326             0.0000000000
     21507       961  BUTH      C4             16.4270272070      -13.5514193826      -18.9585439876  BUTH      326             0.0000000000
     21508       961  BUTH      DC4            16.3749051029      -13.5325133174      -18.9554209012  BUTH      326             0.0000000000
     21509       961  BUTH      O1             16.5594126478      -14.7829627486      -18.9401535153  BUTH      326             0.0000000000
     21510       961  BUTH      DO1            16.5707306955      -14.7371846314      -18.9193587450  BUTH      326             0.0000000000
     21511       961  BUTH      O2             17.2623124756      -12.8184633752      -18.3805118584  BUTH      326             0.0000000000
     21512       961  BUTH      DO2            17.2302741507      -12.8098451915      -18.3739115486  BUTH      326             0.0000000000
     21513       961  BUTH      H1             13.4864965991      -15.0232465098      -18.5448452658  BUTH      326             0.0000000000
     21514       961  BUTH      H2             14.4183517350      -14.4567229187      -17.1336852761  BUTH      326             0.0000000000
     21515       961  BUTH      H3             12.6761179837      -14.0332885664      -17.2860979372  BUTH      326             0.0000000000
     21516       961  BUTH      H4             14.2197346198      -12.0889095244      -17.8880457007  BUTH      326             0.0000000000
     21517       961  BUTH      H5             13.1681603305      -12.5801545752      -19.2598612149  BUTH      326             0.0000000000
     21518       961  BUTH      H6             15.4555917595      -12.0931118905      -19.9805315630  BUTH      326             0.0000000000
     21519       961  BUTH      H7             14.9463283645      -13.7185480963      -20.3605278772  BUTH      326             0.0000000000
     21520       961  BUTH      H8             18.0330363551      -13.4064096728      -18.4152084393  BUTH      326             0.0000000000
     21521       961  BUTH      H9             17.4069825560      -15.0884120138      -18.5833804825  BUTH      326             0.0000000000
     21522       961  BUTH      LPO11          16.2791020970      -14.9356487899      -19.0837256851  BUTH      326             0.0000000000
     21523       961  BUTH      LPO12          16.8653089139      -14.8682931979      -18.7930270771  BUTH      326             0.0000000000
     21524       961  BUTH      LPO21          17.3538157977      -12.5798937686      -18.6197015004  BUTH      326             0.0000000000
     21525       961  BUTH      LPO22          17.1814140324      -12.8400610532      -18.0406751590  BUTH      326             0.0000000000
     21526       962  BUTH      C1              9.3633394315       -1.0136222694      -20.0524990414  BUTH      327             0.0000000000
     21527       962  BUTH      DC1             9.3579824000       -1.0273001549      -20.0988022358  BUTH      327             0.0000000000
     21528       962  BUTH      C2              9.1980582883        0.0008240788      -21.1836489706  BUTH      327             0.0000000000
     21529       962  BUTH      DC2             9.1886042138        0.0636024373      -21.1380464704  BUTH      327             0.0000000000
     21530       962  BUTH      C3              8.5281528004       -0.5755362600      -22.4537766457  BUTH      327             0.0000000000
     21531       962  BUTH      DC3             8.5450018010       -0.5944776211      -22.4452378210  BUTH      327             0.0000000000
     21532       962  BUTH      C4              9.0415374187       -1.7403333658      -22.9396188096  BUTH      327             0.0000000000
     21533       962  BUTH      DC4             9.0321043372       -1.7337183948      -22.9184405025  BUTH      327             0.0000000000
     21534       962  BUTH      O1              8.3755510032       -2.7615553798      -22.7177207192  BUTH      327             0.0000000000
     21535       962  BUTH      DO1             8.4123315963       -2.7642226272      -22.7703679202  BUTH      327             0.0000000000
     21536       962  BUTH      O2              9.6700652224       -1.7756520046      -23.9728153801  BUTH      327             0.0000000000
     21537       962  BUTH      DO2             9.6411341266       -1.7734310529      -23.9599588465  BUTH      327             0.0000000000
     21538       962  BUTH      H1              8.3911261256       -1.4616154389      -19.7551366227  BUTH      327             0.0000000000
     21539       962  BUTH      H2             10.0139415060       -1.8657755399      -20.3438283142  BUTH      327             0.0000000000
     21540       962  BUTH      H3              9.8055219327       -0.5415615595      -19.1491971416  BUTH      327             0.0000000000
     21541       962  BUTH      H4             10.2008225646        0.3852806950      -21.4682151621  BUTH      327             0.0000000000
     21542       962  BUTH      H5              8.6126866421        0.8732479621      -20.8223490902  BUTH      327             0.0000000000
     21543       962  BUTH      H6              8.5980361276        0.2340348027      -23.2114256509  BUTH      327             0.0000000000
     21544       962  BUTH      H7              7.4428452795       -0.6305974823      -22.2226990671  BUTH      327             0.0000000000
     21545       962  BUTH      H8              9.5267858469       -2.7122179059      -24.1806983593  BUTH      327             0.0000000000
     21546       962  BUTH      H9              8.6668186563       -3.5483763662      -23.2025267522  BUTH      327             0.0000000000
     21547       962  BUTH      LPO11           8.0871937946       -2.6795206522      -22.5371094690  BUTH      327             0.0000000000
     21548       962  BUTH      LPO12           8.5352415617       -3.0408872481      -22.8554618999  BUTH      327             0.0000000000
     21549       962  BUTH      LPO21           9.4623944180       -1.6221895524      -24.2090824170  BUTH      327             0.0000000000
     21550       962  BUTH      LPO22          10.0055803575       -1.7798293037      -23.8732556277  BUTH      327             0.0000000000
     21551       963  BUTH      C1             10.1984498682      -12.3022900650        6.9854683446  BUTH      328             0.0000000000
     21552       963  BUTH      DC1            10.2408938547      -12.3136597934        6.9702899737  BUTH      328             0.0000000000
     21553       963  BUTH      C2             11.4758129458      -11.8404969651        6.2874999577  BUTH      328             0.0000000000
     21554       963  BUTH      DC2            11.4449096109      -11.8079392686        6.2043347237  BUTH      328             0.0000000000
     21555       963  BUTH      C3             12.7180215645      -12.6294791489        6.7562402943  BUTH      328             0.0000000000
     21556       963  BUTH      DC3            12.6887366542      -12.6136241504        6.7770729353  BUTH      328             0.0000000000
     21557       963  BUTH      C4             12.8751738734      -12.7482095489        8.1053166249  BUTH      328             0.0000000000
     21558       963  BUTH      DC4            12.8615675734      -12.7312495040        8.0875139359  BUTH      328             0.0000000000
     21559       963  BUTH      O1             12.5119385515      -13.8168200976        8.6087547185  BUTH      328             0.0000000000
     21560       963  BUTH      DO1            12.5508915124      -13.7691669571        8.6267972925  BUTH      328             0.0000000000
     21561       963  BUTH      O2             13.7165865829      -12.1193297139        8.7399098193  BUTH      328             0.0000000000
     21562       963  BUTH      DO2            13.7077666292      -12.1094959784        8.7275630801  BUTH      328             0.0000000000
     21563       963  BUTH      H1             10.0009469618      -13.3788074874        6.7946180308  BUTH      328             0.0000000000
     21564       963  BUTH      H2             10.2727969371      -12.1744691643        8.0865838386  BUTH      328             0.0000000000
     21565       963  BUTH      H3              9.3155289773      -11.7149447656        6.6541117396  BUTH      328             0.0000000000
     21566       963  BUTH      H4             11.6282771120      -10.7634309192        6.5133415225  BUTH      328             0.0000000000
     21567       963  BUTH      H5             11.3723204067      -11.9334625010        5.1852442235  BUTH      328             0.0000000000
     21568       963  BUTH      H6             13.5953982401      -12.1371309690        6.2849394993  BUTH      328             0.0000000000
     21569       963  BUTH      H7             12.6548502617      -13.6136967267        6.2447267109  BUTH      328             0.0000000000
     21570       963  BUTH      H8             13.8344866083      -12.7712410284        9.4484373220  BUTH      328             0.0000000000
     21571       963  BUTH      H9             12.7510101558      -13.9208927142        9.5420149493  BUTH      328             0.0000000000
     21572       963  BUTH      LPO11          12.3864641449      -14.0294755168        8.3606945524  BUTH      328             0.0000000000
     21573       963  BUTH      LPO12          12.5670453128      -13.8111809113        8.9543432664  BUTH      328             0.0000000000
     21574       963  BUTH      LPO21          14.0144196617      -12.1602598742        8.5606887851  BUTH      328             0.0000000000
     21575       963  BUTH      LPO22          13.5363595839      -11.8702085577        8.9071129245  BUTH      328             0.0000000000
     21576       964  BUTH      C1             11.5577063758        9.2727811595       19.6632074908  BUTH      329             0.0000000000
     21577       964  BUTH      DC1            11.6070198008        9.2532151718       19.6652380727  BUTH      329             0.0000000000
     21578       964  BUTH      C2             11.7756952371        8.7898784213       18.2331580858  BUTH      329             0.0000000000
     21579       964  BUTH      DC2            11.7331640720        8.7384180962       18.2452152922  BUTH      329             0.0000000000
     21580       964  BUTH      C3             13.2605766644        8.6362347852       17.8580120953  BUTH      329             0.0000000000
     21581       964  BUTH      DC3            13.2698164376        8.6595627626       17.8745375711  BUTH      329             0.0000000000
     21582       964  BUTH      C4             14.0319962390        9.7256387252       18.1348826569  BUTH      329             0.0000000000
     21583       964  BUTH      DC4            14.0220548024        9.7117807581       18.1360180013  BUTH      329             0.0000000000
     21584       964  BUTH      O1             14.9877217712        9.4674176350       18.8747575653  BUTH      329             0.0000000000
     21585       964  BUTH      DO1            14.9922939378        9.4951007742       18.8310263359  BUTH      329             0.0000000000
     21586       964  BUTH      O2             14.2588650432       10.5997612313       17.2929852953  BUTH      329             0.0000000000
     21587       964  BUTH      DO2            14.2545408772       10.5833827249       17.2918254874  BUTH      329             0.0000000000
     21588       964  BUTH      H1             12.0014285626        8.5665972889       20.3971938410  BUTH      329             0.0000000000
     21589       964  BUTH      H2             12.0205041964       10.2701897497       19.8223152576  BUTH      329             0.0000000000
     21590       964  BUTH      H3             10.4736053351        9.3775704283       19.8824451338  BUTH      329             0.0000000000
     21591       964  BUTH      H4             11.3388278207        9.5404167413       17.5402222359  BUTH      329             0.0000000000
     21592       964  BUTH      H5             11.2355204761        7.8342380836       18.0620330618  BUTH      329             0.0000000000
     21593       964  BUTH      H6             13.2537912175        8.4119103794       16.7699158134  BUTH      329             0.0000000000
     21594       964  BUTH      H7             13.5958421902        7.6866896471       18.3273542519  BUTH      329             0.0000000000
     21595       964  BUTH      H8             15.1273621068       10.8728858461       17.6276729038  BUTH      329             0.0000000000
     21596       964  BUTH      H9             15.5902151498       10.2102224724       19.0303329566  BUTH      329             0.0000000000
     21597       964  BUTH      LPO11          14.9864091397        9.1274021301       18.9577499349  BUTH      329             0.0000000000
     21598       964  BUTH      LPO12          15.1741707502        9.7574123883       18.9350884968  BUTH      329             0.0000000000
     21599       964  BUTH      LPO21          14.3512637894       10.4252343673       17.0040167062  BUTH      329             0.0000000000
     21600       964  BUTH      LPO22          14.0618777260       10.8722537159       17.3901647308  BUTH      329             0.0000000000
     21601       965  BUTH      C1            -22.1951191945       16.5682938610      -21.5812000410  BUTH      330             0.0000000000
     21602       965  BUTH      DC1           -22.2710510655       16.5996456386      -21.6259909278  BUTH      330             0.0000000000
     21603       965  BUTH      C2            -23.5542863478       16.1004981629      -22.0868347757  BUTH      330             0.0000000000
     21604       965  BUTH      DC2           -23.5593178517       16.0229339621      -22.1064314317  BUTH      330             0.0000000000
     21605       965  BUTH      C3            -24.3216934989       17.2228592409      -22.8128217241  BUTH      330             0.0000000000
     21606       965  BUTH      DC3           -24.3171903576       17.2590199692      -22.7879074042  BUTH      330             0.0000000000
     21607       965  BUTH      C4            -24.4194963145       18.3953876018      -22.1290894880  BUTH      330             0.0000000000
     21608       965  BUTH      DC4           -24.4227949563       18.3970980738      -22.1309454219  BUTH      330             0.0000000000
     21609       965  BUTH      O1            -23.8509565103       19.3655424851      -22.6565756981  BUTH      330             0.0000000000
     21610       965  BUTH      DO1           -23.9010976699       19.3793218965      -22.6245329114  BUTH      330             0.0000000000
     21611       965  BUTH      O2            -25.4419167582       18.6976185596      -21.5011632819  BUTH      330             0.0000000000
     21612       965  BUTH      DO2           -25.4512204922       18.6933017851      -21.5120491016  BUTH      330             0.0000000000
     21613       965  BUTH      H1            -21.5498436489       16.9267687552      -22.4115230032  BUTH      330             0.0000000000
     21614       965  BUTH      H2            -22.2896726434       17.3968091094      -20.8470725802  BUTH      330             0.0000000000
     21615       965  BUTH      H3            -21.6439468996       15.7522663465      -21.0667788158  BUTH      330             0.0000000000
     21616       965  BUTH      H4            -24.1565439058       15.7488753832      -21.2219831962  BUTH      330             0.0000000000
     21617       965  BUTH      H5            -23.4299495823       15.2434570579      -22.7827815510  BUTH      330             0.0000000000
     21618       965  BUTH      H6            -25.3191982008       16.7922423007      -23.0449303652  BUTH      330             0.0000000000
     21619       965  BUTH      H7            -23.8216427681       17.3130319544      -23.8008192693  BUTH      330             0.0000000000
     21620       965  BUTH      H8            -25.2939758151       19.6561664390      -21.5152856238  BUTH      330             0.0000000000
     21621       965  BUTH      H9            -24.0205431765       20.2156607654      -22.2235626815  BUTH      330             0.0000000000
     21622       965  BUTH      LPO11         -23.6989884156       19.2669175818      -22.9560399307  BUTH      330             0.0000000000
     21623       965  BUTH      LPO12         -23.8933341535       19.6511722579      -22.4587885188  BUTH      330             0.0000000000
     21624       965  BUTH      LPO21         -25.7031844851       18.6664280056      -21.7319582650  BUTH      330             0.0000000000
     21625       965  BUTH      LPO22         -25.3690165795       18.6231760924      -21.1670317464  BUTH      330             0.0000000000
     21626       966  BUTH      C1              5.1514834789      -15.5751355916       24.5584912254  BUTH      331             0.0000000000
     21627       966  BUTH      DC1             5.2527617283      -15.5612784901       24.5110676713  BUTH      331             0.0000000000
     21628       966  BUTH      C2              6.4016380073      -14.7277845766       24.5326862447  BUTH      331             0.0000000000
     21629       966  BUTH      DC2             6.4277765730      -14.6709787338       24.5265100379  BUTH      331             0.0000000000
     21630       966  BUTH      C3              7.2700712279      -15.1290477802       23.3417659881  BUTH      331             0.0000000000
     21631       966  BUTH      DC3             7.3052102793      -15.1909248396       23.3019498640  BUTH      331             0.0000000000
     21632       966  BUTH      C4              7.4802728669      -16.4687253274       23.1971478807  BUTH      331             0.0000000000
     21633       966  BUTH      DC4             7.5159391586      -16.4785124204       23.1889194918  BUTH      331             0.0000000000
     21634       966  BUTH      O1              7.0873871851      -16.9292920164       22.1161876949  BUTH      331             0.0000000000
     21635       966  BUTH      DO1             7.1777689838      -16.9497212187       22.1333393951  BUTH      331             0.0000000000
     21636       966  BUTH      O2              8.5949180875      -16.9486357364       23.4104988725  BUTH      331             0.0000000000
     21637       966  BUTH      DO2             8.6410247926      -16.9298911498       23.3997386635  BUTH      331             0.0000000000
     21638       966  BUTH      H1              4.5755098300      -15.5147141898       23.6103748768  BUTH      331             0.0000000000
     21639       966  BUTH      H2              5.3823577017      -16.6430265486       24.7600526238  BUTH      331             0.0000000000
     21640       966  BUTH      H3              4.4667645754      -15.2378846703       25.3657971403  BUTH      331             0.0000000000
     21641       966  BUTH      H4              6.9622137045      -14.8768919255       25.4802319624  BUTH      331             0.0000000000
     21642       966  BUTH      H5              6.1410072733      -13.6494815882       24.4722272848  BUTH      331             0.0000000000
     21643       966  BUTH      H6              8.1975214356      -14.5467650491       23.5291264298  BUTH      331             0.0000000000
     21644       966  BUTH      H7              6.7866226496      -14.6397508470       22.4693056835  BUTH      331             0.0000000000
     21645       966  BUTH      H8              8.4165553218      -17.7013380195       22.8252416667  BUTH      331             0.0000000000
     21646       966  BUTH      H9              7.3087627934      -17.8619651942       21.9745028918  BUTH      331             0.0000000000
     21647       966  BUTH      LPO11           6.9471563314      -16.6745411991       21.9214126227  BUTH      331             0.0000000000
     21648       966  BUTH      LPO12           7.1516959768      -17.2730437171       22.1020757291  BUTH      331             0.0000000000
     21649       966  BUTH      LPO21           8.8167017382      -16.7583633650       23.2178633696  BUTH      331             0.0000000000
     21650       966  BUTH      LPO22           8.5736242592      -17.0966098430       23.7269640944  BUTH      331             0.0000000000
     21651       967  BUTH      C1              3.3844814076       -2.0975731793       -1.3413694700  BUTH      332             0.0000000000
     21652       967  BUTH      DC1             3.4206390634       -2.0981461141       -1.2947905025  BUTH      332             0.0000000000
     21653       967  BUTH      C2              3.1004711967       -1.1306700106       -0.1990066113  BUTH      332             0.0000000000
     21654       967  BUTH      DC2             3.0634749897       -1.1114649351       -0.2159090705  BUTH      332             0.0000000000
     21655       967  BUTH      C3              4.4055658438       -0.5493334263        0.3720626557  BUTH      332             0.0000000000
     21656       967  BUTH      DC3             4.4628896422       -0.6032467087        0.3849205625  BUTH      332             0.0000000000
     21657       967  BUTH      C4              5.2545098583       -1.5136702210        0.8044185667  BUTH      332             0.0000000000
     21658       967  BUTH      DC4             5.2942624949       -1.5198916899        0.8054102963  BUTH      332             0.0000000000
     21659       967  BUTH      O1              6.4047433994       -1.4504522976        0.3350325749  BUTH      332             0.0000000000
     21660       967  BUTH      DO1             6.4403363793       -1.4682249506        0.4014850279  BUTH      332             0.0000000000
     21661       967  BUTH      O2              5.2425358347       -1.9102727819        1.9717350625  BUTH      332             0.0000000000
     21662       967  BUTH      DO2             5.2636482460       -1.9054606998        1.9640926854  BUTH      332             0.0000000000
     21663       967  BUTH      H1              4.0089509351       -1.6141268422       -2.1228030554  BUTH      332             0.0000000000
     21664       967  BUTH      H2              3.9189740777       -3.0061914118       -0.9905825095  BUTH      332             0.0000000000
     21665       967  BUTH      H3              2.4394606957       -2.4208041966       -1.8279684461  BUTH      332             0.0000000000
     21666       967  BUTH      H4              2.5350112368       -1.6492496473        0.6045176224  BUTH      332             0.0000000000
     21667       967  BUTH      H5              2.4562588579       -0.2978664720       -0.5536186950  BUTH      332             0.0000000000
     21668       967  BUTH      H6              4.0848644651        0.1246398040        1.1950035473  BUTH      332             0.0000000000
     21669       967  BUTH      H7              4.7992901958        0.1389764365       -0.4060964973  BUTH      332             0.0000000000
     21670       967  BUTH      H8              6.1667882599       -2.1998409752        2.0247229458  BUTH      332             0.0000000000
     21671       967  BUTH      H9              7.0307122808       -2.0900936655        0.7064930440  BUTH      332             0.0000000000
     21672       967  BUTH      LPO11           6.4299720152       -1.1784229039        0.1162552316  BUTH      332             0.0000000000
     21673       967  BUTH      LPO12           6.6008958639       -1.7103143777        0.4634689794  BUTH      332             0.0000000000
     21674       967  BUTH      LPO21           5.2537671447       -1.6192804564        2.1658930502  BUTH      332             0.0000000000
     21675       967  BUTH      LPO22           5.0777116925       -2.2188246536        1.9603884959  BUTH      332             0.0000000000
     21676       968  BUTH      C1             12.3893839640        4.7014598258       24.2506123550  BUTH      333             0.0000000000
     21677       968  BUTH      DC1            12.4333941457        4.6865937377       24.2819114363  BUTH      333             0.0000000000
     21678       968  BUTH      C2             12.7627234011        3.9758041490       25.5297220629  BUTH      333             0.0000000000
     21679       968  BUTH      DC2            12.6773040318        3.9322848513       25.5597924244  BUTH      333             0.0000000000
     21680       968  BUTH      C3             14.0082810724        4.5848514508       26.1911849192  BUTH      333             0.0000000000
     21681       968  BUTH      DC3            14.0011831042        4.5749046597       26.1637785760  BUTH      333             0.0000000000
     21682       968  BUTH      C4             15.0658998209        4.7375775164       25.3477750478  BUTH      333             0.0000000000
     21683       968  BUTH      DC4            15.0410235437        4.7301873099       25.3630989569  BUTH      333             0.0000000000
     21684       968  BUTH      O1             15.3711513443        5.9087260360       25.0963585780  BUTH      333             0.0000000000
     21685       968  BUTH      DO1            15.4025285300        5.8505248121       25.0991717343  BUTH      333             0.0000000000
     21686       968  BUTH      O2             15.9844629414        3.9211318038       25.3007614701  BUTH      333             0.0000000000
     21687       968  BUTH      DO2            15.9703167095        3.9252482460       25.3180238136  BUTH      333             0.0000000000
     21688       968  BUTH      H1             12.1593674753        5.7706006114       24.4464474822  BUTH      333             0.0000000000
     21689       968  BUTH      H2             13.2080436427        4.6619765418       23.5005734224  BUTH      333             0.0000000000
     21690       968  BUTH      H3             11.4921578599        4.2375273238       23.7879321715  BUTH      333             0.0000000000
     21691       968  BUTH      H4             12.9638951001        2.9149021389       25.2683069268  BUTH      333             0.0000000000
     21692       968  BUTH      H5             11.9127852226        4.0033667728       26.2446810788  BUTH      333             0.0000000000
     21693       968  BUTH      H6             14.2557638246        3.9210117976       27.0469829117  BUTH      333             0.0000000000
     21694       968  BUTH      H7             13.6602780988        5.5292645054       26.6616091030  BUTH      333             0.0000000000
     21695       968  BUTH      H8             16.6400686953        4.4964002092       24.8763237749  BUTH      333             0.0000000000
     21696       968  BUTH      H9             16.1898125074        6.0143104125       24.5888087386  BUTH      333             0.0000000000
     21697       968  BUTH      LPO11          15.1565978477        6.1273458887       25.2656871259  BUTH      333             0.0000000000
     21698       968  BUTH      LPO12          15.6448268348        5.9169376006       24.8783349644  BUTH      333             0.0000000000
     21699       968  BUTH      LPO21          16.1097827474        3.9072790538       25.6272626915  BUTH      333             0.0000000000
     21700       968  BUTH      LPO22          15.9020939152        3.7076655498       25.0359077333  BUTH      333             0.0000000000
     21701       969  BUTH      C1            -15.3350502343        3.5214554716      -18.5735004246  BUTH      334             0.0000000000
     21702       969  BUTH      DC1           -15.3038276431        3.5041380027      -18.5800444243  BUTH      334             0.0000000000
     21703       969  BUTH      C2            -15.6237864378        2.0365485183      -18.7464055570  BUTH      334             0.0000000000
     21704       969  BUTH      DC2           -15.6762352055        2.0504620550      -18.7307653269  BUTH      334             0.0000000000
     21705       969  BUTH      C3            -14.4029878848        1.1385741104      -18.5700618083  BUTH      334             0.0000000000
     21706       969  BUTH      DC3           -14.3607501101        1.1755412302      -18.5945650409  BUTH      334             0.0000000000
     21707       969  BUTH      C4            -13.3400815151        1.4620769967      -19.3409503038  BUTH      334             0.0000000000
     21708       969  BUTH      DC4           -13.3388498658        1.4641446065      -19.3475168563  BUTH      334             0.0000000000
     21709       969  BUTH      O1            -12.4146859899        2.0218289714      -18.7384773515  BUTH      334             0.0000000000
     21710       969  BUTH      DO1           -12.3917591012        1.9646873983      -18.7906998153  BUTH      334             0.0000000000
     21711       969  BUTH      O2            -12.9234492664        0.7275671391      -20.2026777752  BUTH      334             0.0000000000
     21712       969  BUTH      DO2           -12.9175727470        0.7242409493      -20.2093556867  BUTH      334             0.0000000000
     21713       969  BUTH      H1            -14.9899027220        3.7412749433      -17.5406046916  BUTH      334             0.0000000000
     21714       969  BUTH      H2            -14.5412957775        3.8652804016      -19.2706799422  BUTH      334             0.0000000000
     21715       969  BUTH      H3            -16.2520329822        4.1219558393      -18.7547818357  BUTH      334             0.0000000000
     21716       969  BUTH      H4            -16.1321663376        1.8177583551      -19.7097340275  BUTH      334             0.0000000000
     21717       969  BUTH      H5            -16.2966303172        1.7099306398      -17.9248686584  BUTH      334             0.0000000000
     21718       969  BUTH      H6            -14.7608356188        0.0938304250      -18.6916209759  BUTH      334             0.0000000000
     21719       969  BUTH      H7            -14.2083763345        1.2170301475      -17.4790567686  BUTH      334             0.0000000000
     21720       969  BUTH      H8            -11.9983866214        0.9573947283      -20.0228490177  BUTH      334             0.0000000000
     21721       969  BUTH      H9            -11.6013808453        2.1200643906      -19.2560153154  BUTH      334             0.0000000000
     21722       969  BUTH      LPO11         -12.4965998684        2.0578103534      -18.4001055787  BUTH      334             0.0000000000
     21723       969  BUTH      LPO12         -12.1538124181        2.0940964830      -18.9603385385  BUTH      334             0.0000000000
     21724       969  BUTH      LPO21         -12.9452527968        0.4055844264      -20.0672091857  BUTH      334             0.0000000000
     21725       969  BUTH      LPO22         -12.9823792850        0.8964229243      -20.5035348455  BUTH      334             0.0000000000
     21726       970  BUTH      C1            -18.5471262233        7.1235370619      -24.3620617116  BUTH      335             0.0000000000
     21727       970  BUTH      DC1           -18.5551971483        7.1702933486      -24.3480645760  BUTH      335             0.0000000000
     21728       970  BUTH      C2            -19.9479421416        7.6194241841      -24.7074047740  BUTH      335             0.0000000000
     21729       970  BUTH      DC2           -19.9603397594        7.5666077008      -24.7330433675  BUTH      335             0.0000000000
     21730       970  BUTH      C3            -20.0552902103        9.1627090173      -24.7796753700  BUTH      335             0.0000000000
     21731       970  BUTH      DC3           -20.0279145574        9.1658509331      -24.7296605391  BUTH      335             0.0000000000
     21732       970  BUTH      C4            -19.5932026038        9.8475590417      -23.6969236236  BUTH      335             0.0000000000
     21733       970  BUTH      DC4           -19.5908241404        9.8411833493      -23.6847346361  BUTH      335             0.0000000000
     21734       970  BUTH      O1            -18.5212460665       10.4503684238      -23.8415316145  BUTH      335             0.0000000000
     21735       970  BUTH      DO1           -18.5578359275       10.4542954305      -23.7933703152  BUTH      335             0.0000000000
     21736       970  BUTH      O2            -20.3210715367       10.2611504222      -22.7759510268  BUTH      335             0.0000000000
     21737       970  BUTH      DO2           -20.3336640433       10.2536564440      -22.7752840750  BUTH      335             0.0000000000
     21738       970  BUTH      H1            -17.7889361595        7.5347827205      -25.0623086933  BUTH      335             0.0000000000
     21739       970  BUTH      H2            -18.2623079077        7.4158941786      -23.3287530233  BUTH      335             0.0000000000
     21740       970  BUTH      H3            -18.4901039953        6.0150969736      -24.4113571125  BUTH      335             0.0000000000
     21741       970  BUTH      H4            -20.6640268273        7.2412672763      -23.9467858970  BUTH      335             0.0000000000
     21742       970  BUTH      H5            -20.2575667838        7.1947727455      -25.6862432380  BUTH      335             0.0000000000
     21743       970  BUTH      H6            -21.1278420737        9.3743529394      -24.9775651133  BUTH      335             0.0000000000
     21744       970  BUTH      H7            -19.5517656159        9.4429626348      -25.7295395148  BUTH      335             0.0000000000
     21745       970  BUTH      H8            -19.7396679724       10.9766711153      -22.4744547034  BUTH      335             0.0000000000
     21746       970  BUTH      H9            -18.2755737210       11.0158730370      -23.0939952400  BUTH      335             0.0000000000
     21747       970  BUTH      LPO11         -18.4005331803       10.4036048616      -24.1667109010  BUTH      335             0.0000000000
     21748       970  BUTH      LPO12         -18.4347054875       10.6136799327      -23.5443110243  BUTH      335             0.0000000000
     21749       970  BUTH      LPO21         -20.5736960390       10.4439944467      -22.9348501255  BUTH      335             0.0000000000
     21750       970  BUTH      LPO22         -20.2803057384       10.0294499885      -22.5168119547  BUTH      335             0.0000000000
     21751       971  BUTH      C1              2.3782330359        4.4055555038      -24.2472601648  BUTH      336             0.0000000000
     21752       971  BUTH      DC1             2.3561818136        4.3992167610      -24.2278044837  BUTH      336             0.0000000000
     21753       971  BUTH      C2              1.0040945518        4.4997209408      -23.5925986844  BUTH      336             0.0000000000
     21754       971  BUTH      DC2             0.9636669689        4.4605591488      -23.6675485739  BUTH      336             0.0000000000
     21755       971  BUTH      C3              1.0141095148        5.4167912317      -22.3483702536  BUTH      336             0.0000000000
     21756       971  BUTH      DC3             1.0474672218        5.3712173320      -22.3551689212  BUTH      336             0.0000000000
     21757       971  BUTH      C4              1.9115912127        5.0904091980      -21.3750067868  BUTH      336             0.0000000000
     21758       971  BUTH      DC4             1.8945002905        5.0898514161      -21.3853829225  BUTH      336             0.0000000000
     21759       971  BUTH      O1              2.8122529156        5.9209822273      -21.1810302527  BUTH      336             0.0000000000
     21760       971  BUTH      DO1             2.7896954717        5.8876440880      -21.1503500093  BUTH      336             0.0000000000
     21761       971  BUTH      O2              1.5737489148        4.3737421367      -20.4060715565  BUTH      336             0.0000000000
     21762       971  BUTH      DO2             1.5445970936        4.3814365317      -20.4193087846  BUTH      336             0.0000000000
     21763       971  BUTH      H1              2.7770841483        5.4182580698      -24.4701330084  BUTH      336             0.0000000000
     21764       971  BUTH      H2              3.1072162209        3.9055708495      -23.5742669550  BUTH      336             0.0000000000
     21765       971  BUTH      H3              2.3469135775        3.8384100358      -25.2020827186  BUTH      336             0.0000000000
     21766       971  BUTH      H4              0.6634391865        3.4864290493      -23.2900851055  BUTH      336             0.0000000000
     21767       971  BUTH      H5              0.2696877489        4.9108489733      -24.3178168507  BUTH      336             0.0000000000
     21768       971  BUTH      H6             -0.0260933007        5.3873749456      -21.9592253110  BUTH      336             0.0000000000
     21769       971  BUTH      H7              1.1125016969        6.4547028186      -22.7322706524  BUTH      336             0.0000000000
     21770       971  BUTH      H8              2.2945946104        4.5891243798      -19.7937873312  BUTH      336             0.0000000000
     21771       971  BUTH      H9              3.3981427469        5.7181610339      -20.4363439636  BUTH      336             0.0000000000
     21772       971  BUTH      LPO11           2.7729954903        6.1929561878      -21.3977997602  BUTH      336             0.0000000000
     21773       971  BUTH      LPO12           3.0253459263        5.8093161252      -20.9268215777  BUTH      336             0.0000000000
     21774       971  BUTH      LPO21           1.3089204386        4.5455389025      -20.2549036053  BUTH      336             0.0000000000
     21775       971  BUTH      LPO22           1.6643628693        4.0485701323      -20.4985500878  BUTH      336             0.0000000000
     21776       972  BUTH      C1             15.2796445469       26.0618212623       14.5814590585  BUTH      337             0.0000000000
     21777       972  BUTH      DC1            15.2901740945       26.0303657926       14.5497317058  BUTH      337             0.0000000000
     21778       972  BUTH      C2             15.3929493782       25.5764889493       13.1532996400  BUTH      337             0.0000000000
     21779       972  BUTH      DC2            15.3602853142       25.6607797868       13.1125759992  BUTH      337             0.0000000000
     21780       972  BUTH      C3             15.4156592273       24.0302891889       13.1149015898  BUTH      337             0.0000000000
     21781       972  BUTH      DC3            15.4478369519       24.0486132713       13.1491742995  BUTH      337             0.0000000000
     21782       972  BUTH      C4             16.4110458224       23.4700150733       13.8577493069  BUTH      337             0.0000000000
     21783       972  BUTH      DC4            16.4057178225       23.4622122723       13.8417438120  BUTH      337             0.0000000000
     21784       972  BUTH      O1             16.0556143237       22.7361338877       14.7892788305  BUTH      337             0.0000000000
     21785       972  BUTH      DO1            16.1252841613       22.7263994910       14.7582304019  BUTH      337             0.0000000000
     21786       972  BUTH      O2             17.5045287514       23.1477843857       13.4058557771  BUTH      337             0.0000000000
     21787       972  BUTH      DO2            17.5073092747       23.1266550508       13.3904365753  BUTH      337             0.0000000000
     21788       972  BUTH      H1             14.4822673963       25.4725893361       15.0827737468  BUTH      337             0.0000000000
     21789       972  BUTH      H2             16.2098042103       25.8714261572       15.1584111412  BUTH      337             0.0000000000
     21790       972  BUTH      H3             15.0235017791       27.1393127806       14.6693448432  BUTH      337             0.0000000000
     21791       972  BUTH      H4             16.3327872692       25.9782709886       12.7178723418  BUTH      337             0.0000000000
     21792       972  BUTH      H5             14.5339156767       25.9381313521       12.5486535681  BUTH      337             0.0000000000
     21793       972  BUTH      H6             15.4753710695       23.7430900290       12.0433269828  BUTH      337             0.0000000000
     21794       972  BUTH      H7             14.3936116132       23.7077889829       13.4077040693  BUTH      337             0.0000000000
     21795       972  BUTH      H8             17.7644626711       22.6999373039       14.2260797397  BUTH      337             0.0000000000
     21796       972  BUTH      H9             16.7752332886       22.2401269485       15.2077124115  BUTH      337             0.0000000000
     21797       972  BUTH      LPO11          15.7062408198       22.7194500605       14.8019202183  BUTH      337             0.0000000000
     21798       972  BUTH      LPO12          16.3362520786       22.6108948039       14.9567829272  BUTH      337             0.0000000000
     21799       972  BUTH      LPO21          17.4407236113       22.8768338422       13.1936890807  BUTH      337             0.0000000000
     21800       972  BUTH      LPO22          17.6991040295       23.4384420767       13.4184481496  BUTH      337             0.0000000000
     21801       973  BUTH      C1            -10.4067280961       -5.0174879343       14.5695904398  BUTH      338             0.0000000000
     21802       973  BUTH      DC1           -10.3826162629       -5.0821490554       14.5271486442  BUTH      338             0.0000000000
     21803       973  BUTH      C2             -9.5401583852       -5.8196950036       13.6103062632  BUTH      338             0.0000000000
     21804       973  BUTH      DC2            -9.4969312696       -5.7636227993       13.5522036763  BUTH      338             0.0000000000
     21805       973  BUTH      C3            -10.0963383095       -7.2410175739       13.3528326112  BUTH      338             0.0000000000
     21806       973  BUTH      DC3           -10.1037265566       -7.2361688768       13.3809793003  BUTH      338             0.0000000000
     21807       973  BUTH      C4            -10.3649015552       -7.9752265703       14.4752343592  BUTH      338             0.0000000000
     21808       973  BUTH      DC4           -10.3677609172       -7.9770262750       14.4506818834  BUTH      338             0.0000000000
     21809       973  BUTH      O1            -11.5451588916       -8.3621641753       14.5457955705  BUTH      338             0.0000000000
     21810       973  BUTH      DO1           -11.5170054831       -8.3855921135       14.5514198994  BUTH      338             0.0000000000
     21811       973  BUTH      O2             -9.4816888585       -8.7277704599       14.9851969288  BUTH      338             0.0000000000
     21812       973  BUTH      DO2            -9.4863852016       -8.7334717052       14.9490730817  BUTH      338             0.0000000000
     21813       973  BUTH      H1            -11.3979680027       -4.8113694174       14.1121195596  BUTH      338             0.0000000000
     21814       973  BUTH      H2            -10.5810402797       -5.5491080203       15.5294426925  BUTH      338             0.0000000000
     21815       973  BUTH      H3             -9.9642146903       -4.0293287482       14.8186773897  BUTH      338             0.0000000000
     21816       973  BUTH      H4             -8.5186716821       -5.9062749896       14.0385466426  BUTH      338             0.0000000000
     21817       973  BUTH      H5             -9.4627345642       -5.2777343691       12.6435564391  BUTH      338             0.0000000000
     21818       973  BUTH      H6             -9.3341849806       -7.7362832795       12.7139623692  BUTH      338             0.0000000000
     21819       973  BUTH      H7            -10.9636378316       -7.0940227210       12.6742273855  BUTH      338             0.0000000000
     21820       973  BUTH      H8             -9.9073486780       -9.0102055408       15.8097841850  BUTH      338             0.0000000000
     21821       973  BUTH      H9            -11.7345623432       -8.9431270064       15.2978391339  BUTH      338             0.0000000000
     21822       973  BUTH      LPO11         -11.7243572235       -8.2514117227       14.2662927045  BUTH      338             0.0000000000
     21823       973  BUTH      LPO12         -11.5930945148       -8.5473806162       14.8388775488  BUTH      338             0.0000000000
     21824       973  BUTH      LPO21          -9.5021602338       -9.0258531408       14.8029124311  BUTH      338             0.0000000000
     21825       973  BUTH      LPO22          -9.2414499074       -8.5086218783       15.1146540473  BUTH      338             0.0000000000
     21826       974  BUTH      C1             -2.6192617096      -22.5307158612       23.4709540269  BUTH      339             0.0000000000
     21827       974  BUTH      DC1            -2.6812971509      -22.5107149875       23.4613608780  BUTH      339             0.0000000000
     21828       974  BUTH      C2             -3.3377523845      -21.8965445391       22.2941908396  BUTH      339             0.0000000000
     21829       974  BUTH      DC2            -3.2775363878      -21.8249255482       22.2674440987  BUTH      339             0.0000000000
     21830       974  BUTH      C3             -4.8415663147      -22.1695158374       22.3486961095  BUTH      339             0.0000000000
     21831       974  BUTH      DC3            -4.8104090487      -22.1898817367       22.3614173159  BUTH      339             0.0000000000
     21832       974  BUTH      C4             -5.0942983674      -23.4933866435       22.5285020171  BUTH      339             0.0000000000
     21833       974  BUTH      DC4            -5.0948592846      -23.4588101674       22.5108729649  BUTH      339             0.0000000000
     21834       974  BUTH      O1             -5.6689956037      -23.7459191094       23.5897284821  BUTH      339             0.0000000000
     21835       974  BUTH      DO1            -5.6635080808      -23.7434389068       23.5426279559  BUTH      339             0.0000000000
     21836       974  BUTH      O2             -5.2136222379      -24.2780733005       21.5684613860  BUTH      339             0.0000000000
     21837       974  BUTH      DO2            -5.2031044249      -24.2348786289       21.5217608750  BUTH      339             0.0000000000
     21838       974  BUTH      H1             -3.0176454863      -22.1662963419       24.4419379508  BUTH      339             0.0000000000
     21839       974  BUTH      H2             -2.7067311666      -23.6381650308       23.4559063361  BUTH      339             0.0000000000
     21840       974  BUTH      H3             -1.5339892020      -22.2958731574       23.4341642302  BUTH      339             0.0000000000
     21841       974  BUTH      H4             -2.9388636391      -22.3535559212       21.3634119366  BUTH      339             0.0000000000
     21842       974  BUTH      H5             -3.1436922089      -20.8032180679       22.2581509226  BUTH      339             0.0000000000
     21843       974  BUTH      H6             -5.2736642899      -21.7777962216       21.4030914963  BUTH      339             0.0000000000
     21844       974  BUTH      H7             -5.2522531227      -21.4995376178       23.1340536911  BUTH      339             0.0000000000
     21845       974  BUTH      H8             -5.4124780697      -25.0885415187       22.0629283975  BUTH      339             0.0000000000
     21846       974  BUTH      H9             -5.9680675138      -24.6632873134       23.6789056707  BUTH      339             0.0000000000
     21847       974  BUTH      LPO11          -5.7249734681      -23.4504565067       23.7688048041  BUTH      339             0.0000000000
     21848       974  BUTH      LPO12          -5.7246092507      -24.0904170612       23.6167152101  BUTH      339             0.0000000000
     21849       974  BUTH      LPO21          -5.5282799805      -24.2071180118       21.4326090690  BUTH      339             0.0000000000
     21850       974  BUTH      LPO22          -4.8858949907      -24.3447918996       21.4652941433  BUTH      339             0.0000000000
     21851       975  BUTH      C1              3.1122511610        6.6989783343       -8.2549084558  BUTH      340             0.0000000000
     21852       975  BUTH      DC1             3.2082494735        6.7422955267       -8.2120292063  BUTH      340             0.0000000000
     21853       975  BUTH      C2              4.5488312737        6.7237724164       -7.7779635562  BUTH      340             0.0000000000
     21854       975  BUTH      DC2             4.6195474542        6.6567624851       -7.7527064389  BUTH      340             0.0000000000
     21855       975  BUTH      C3              4.7855173030        7.9848030414       -6.9444040863  BUTH      340             0.0000000000
     21856       975  BUTH      DC3             4.7998683912        8.0172255614       -6.9479934172  BUTH      340             0.0000000000
     21857       975  BUTH      C4              4.3771906032        9.1448714990       -7.5312371834  BUTH      340             0.0000000000
     21858       975  BUTH      DC4             4.4141936051        9.1353831629       -7.5243571744  BUTH      340             0.0000000000
     21859       975  BUTH      O1              3.7340051629        9.8798649768       -6.7799199197  BUTH      340             0.0000000000
     21860       975  BUTH      DO1             3.8270487556        9.9152739253       -6.8329448498  BUTH      340             0.0000000000
     21861       975  BUTH      O2              5.1869683465        9.8456959863       -8.1059432970  BUTH      340             0.0000000000
     21862       975  BUTH      DO2             5.2227741435        9.8482043631       -8.0875408407  BUTH      340             0.0000000000
     21863       975  BUTH      H1              2.4097228097        6.7425235802       -7.3953279017  BUTH      340             0.0000000000
     21864       975  BUTH      H2              2.8628310396        7.5512173071       -8.9225905191  BUTH      340             0.0000000000
     21865       975  BUTH      H3              2.8899179802        5.7704374712       -8.8229760771  BUTH      340             0.0000000000
     21866       975  BUTH      H4              5.2260802819        6.7114082065       -8.6585894184  BUTH      340             0.0000000000
     21867       975  BUTH      H5              4.7608448473        5.8241156009       -7.1615311926  BUTH      340             0.0000000000
     21868       975  BUTH      H6              5.8831925623        7.9603471538       -6.7746043949  BUTH      340             0.0000000000
     21869       975  BUTH      H7              4.3172308429        7.7734771130       -5.9593304123  BUTH      340             0.0000000000
     21870       975  BUTH      H8              4.6329035068       10.6298539504       -7.9680721957  BUTH      340             0.0000000000
     21871       975  BUTH      H9              3.4740999822       10.7275331599       -7.1709045100  BUTH      340             0.0000000000
     21872       975  BUTH      LPO11           3.7038490280        9.7315655795       -6.4643285759  BUTH      340             0.0000000000
     21873       975  BUTH      LPO12           3.6391942205       10.1709692031       -6.9495348208  BUTH      340             0.0000000000
     21874       975  BUTH      LPO21           5.4456156092        9.8969186757       -7.8757741644  BUTH      340             0.0000000000
     21875       975  BUTH      LPO22           5.1402072106        9.7815266358       -8.4468181870  BUTH      340             0.0000000000
     21876       976  BUTH      C1              5.7912802651        2.0049582861      -11.1146272779  BUTH      341             0.0000000000
     21877       976  BUTH      DC1             5.8376536534        2.0455057349      -11.0994031788  BUTH      341             0.0000000000
     21878       976  BUTH      C2              4.7007385255        1.6325174214      -12.1123430593  BUTH      341             0.0000000000
     21879       976  BUTH      DC2             4.7729355213        1.5910714012      -12.0865395226  BUTH      341             0.0000000000
     21880       976  BUTH      C3              4.0933585074        2.8434879938      -12.8656312259  BUTH      341             0.0000000000
     21881       976  BUTH      DC3             4.1224989438        2.8380687138      -12.8253557263  BUTH      341             0.0000000000
     21882       976  BUTH      C4              3.5780777656        3.8709711812      -12.1343804935  BUTH      341             0.0000000000
     21883       976  BUTH      DC4             3.6113851342        3.8501493598      -12.1382263973  BUTH      341             0.0000000000
     21884       976  BUTH      O1              4.3366084488        4.8494984777      -12.0060854390  BUTH      341             0.0000000000
     21885       976  BUTH      DO1             4.3128352916        4.8432898272      -12.0042117065  BUTH      341             0.0000000000
     21886       976  BUTH      O2              2.3694190627        3.9445576656      -11.8156348820  BUTH      341             0.0000000000
     21887       976  BUTH      DO2             2.3991825515        3.9279992074      -11.8233202650  BUTH      341             0.0000000000
     21888       976  BUTH      H1              6.6067246749        2.5545631760      -11.6316436021  BUTH      341             0.0000000000
     21889       976  BUTH      H2              5.3723427720        2.6684511723      -10.3281226257  BUTH      341             0.0000000000
     21890       976  BUTH      H3              6.2034549420        1.0981084588      -10.6226349739  BUTH      341             0.0000000000
     21891       976  BUTH      H4              3.8799656601        1.1002468583      -11.5857113558  BUTH      341             0.0000000000
     21892       976  BUTH      H5              5.1041887237        0.9144016277      -12.8579023425  BUTH      341             0.0000000000
     21893       976  BUTH      H6              3.3110713152        2.4105010126      -13.5250779817  BUTH      341             0.0000000000
     21894       976  BUTH      H7              4.8797000592        3.1777365943      -13.5757480029  BUTH      341             0.0000000000
     21895       976  BUTH      H8              2.2559502870        4.8932799857      -11.6484499652  BUTH      341             0.0000000000
     21896       976  BUTH      H9              3.9406575984        5.6051097237      -11.5464817304  BUTH      341             0.0000000000
     21897       976  BUTH      LPO11           4.6386260199        4.7894679084      -12.1724636753  BUTH      341             0.0000000000
     21898       976  BUTH      LPO12           4.1804887432        5.0977416625      -11.8150305812  BUTH      341             0.0000000000
     21899       976  BUTH      LPO21           2.1960203909        3.9162552786      -12.1183424563  BUTH      341             0.0000000000
     21900       976  BUTH      LPO22           2.3568656674        3.8242709235      -11.4871938494  BUTH      341             0.0000000000
     21901       977  BUTH      C1              0.4835910509       10.9582095684      -15.7453268955  BUTH      342             0.0000000000
     21902       977  BUTH      DC1             0.5096146756       10.9303994241      -15.7643655665  BUTH      342             0.0000000000
     21903       977  BUTH      C2             -0.3971253849       11.3162213738      -14.5497140191  BUTH      342             0.0000000000
     21904       977  BUTH      DC2            -0.3632652753       11.3696345412      -14.5947009018  BUTH      342             0.0000000000
     21905       977  BUTH      C3             -0.4240981986       10.2600964507      -13.4059703904  BUTH      342             0.0000000000
     21906       977  BUTH      DC3            -0.4192486735       10.2433415004      -13.4534750910  BUTH      342             0.0000000000
     21907       977  BUTH      C4             -0.7445833516        8.9509451549      -13.6441798290  BUTH      342             0.0000000000
     21908       977  BUTH      DC4            -0.7212244627        8.9652431061      -13.6942171092  BUTH      342             0.0000000000
     21909       977  BUTH      O1              0.2214663244        8.2417587197      -13.9990642036  BUTH      342             0.0000000000
     21910       977  BUTH      DO1             0.2067811211        8.2285919168      -14.0137297476  BUTH      342             0.0000000000
     21911       977  BUTH      O2             -1.9449347850        8.5463870840      -13.8282155809  BUTH      342             0.0000000000
     21912       977  BUTH      DO2            -1.9431263568        8.5486453857      -13.8955816293  BUTH      342             0.0000000000
     21913       977  BUTH      H1              1.5149641383       10.7105399620      -15.4147965307  BUTH      342             0.0000000000
     21914       977  BUTH      H2              0.0672591109       10.0759749793      -16.2769760726  BUTH      342             0.0000000000
     21915       977  BUTH      H3              0.5335024071       11.8064069975      -16.4611418005  BUTH      342             0.0000000000
     21916       977  BUTH      H4             -1.4375184536       11.4812424312      -14.9028022734  BUTH      342             0.0000000000
     21917       977  BUTH      H5             -0.0576859406       12.2824492743      -14.1190105155  BUTH      342             0.0000000000
     21918       977  BUTH      H6             -1.1180740454       10.6848281417      -12.6494510472  BUTH      342             0.0000000000
     21919       977  BUTH      H7              0.5673825890       10.3540228586      -12.9135633660  BUTH      342             0.0000000000
     21920       977  BUTH      H8             -2.0622169904        8.0635069806      -12.9951659485  BUTH      342             0.0000000000
     21921       977  BUTH      H9             -0.0123260913        7.3178659054      -14.1743473289  BUTH      342             0.0000000000
     21922       977  BUTH      LPO11           0.5131362710        8.4347646532      -14.0123815568  BUTH      342             0.0000000000
     21923       977  BUTH      LPO12           0.1148464105        7.9129057628      -14.0537261343  BUTH      342             0.0000000000
     21924       977  BUTH      LPO21          -2.1461339816        8.8262713910      -13.7675224348  BUTH      342             0.0000000000
     21925       977  BUTH      LPO22          -1.9180177106        8.2791059696      -14.0525730568  BUTH      342             0.0000000000
     21926       978  BUTH      C1             14.1288808845      -19.9604454163       -4.6255962356  BUTH      343             0.0000000000
     21927       978  BUTH      DC1            14.1010715788      -19.9767363430       -4.6290295876  BUTH      343             0.0000000000
     21928       978  BUTH      C2             15.3480899891      -20.8114510872       -4.9651466000  BUTH      343             0.0000000000
     21929       978  BUTH      DC2            15.3751608419      -20.7441158201       -4.9570207782  BUTH      343             0.0000000000
     21930       978  BUTH      C3             14.9990681937      -22.2150990781       -5.5186035345  BUTH      343             0.0000000000
     21931       978  BUTH      DC3            14.9587851541      -22.2078626180       -5.4739433578  BUTH      343             0.0000000000
     21932       978  BUTH      C4             14.0364844507      -22.9226657397       -4.8648132644  BUTH      343             0.0000000000
     21933       978  BUTH      DC4            14.0369087962      -22.9190299147       -4.8674891216  BUTH      343             0.0000000000
     21934       978  BUTH      O1             13.0806750621      -23.2756339550       -5.5698896537  BUTH      343             0.0000000000
     21935       978  BUTH      DO1            13.1030591117      -23.3076212939       -5.5291457428  BUTH      343             0.0000000000
     21936       978  BUTH      O2             14.2914639859      -23.6673366402       -3.8962013250  BUTH      343             0.0000000000
     21937       978  BUTH      DO2            14.3028148801      -23.6629767970       -3.9007447125  BUTH      343             0.0000000000
     21938       978  BUTH      H1             13.4478363151      -19.8773213462       -5.4994324236  BUTH      343             0.0000000000
     21939       978  BUTH      H2             13.5476704379      -20.4133736191       -3.7941087362  BUTH      343             0.0000000000
     21940       978  BUTH      H3             14.4309782250      -18.9347186624       -4.3240289574  BUTH      343             0.0000000000
     21941       978  BUTH      H4             15.9635197700      -20.9368502456       -4.0487175322  BUTH      343             0.0000000000
     21942       978  BUTH      H5             15.9761893310      -20.2915653406       -5.7198193948  BUTH      343             0.0000000000
     21943       978  BUTH      H6             15.9645964848      -22.7644909370       -5.5029604744  BUTH      343             0.0000000000
     21944       978  BUTH      H7             14.8054285376      -22.0617033537       -6.6017906999  BUTH      343             0.0000000000
     21945       978  BUTH      H8             13.5150062503      -24.2454347975       -3.9579743399  BUTH      343             0.0000000000
     21946       978  BUTH      H9             12.4137386489      -23.8027331636       -5.1047840259  BUTH      343             0.0000000000
     21947       978  BUTH      LPO11          13.1270617637      -23.1648041335       -5.8986221050  BUTH      343             0.0000000000
     21948       978  BUTH      LPO12          12.8496058864      -23.4546646586       -5.3773927882  BUTH      343             0.0000000000
     21949       978  BUTH      LPO21          14.5419215833      -23.8830272527       -4.0113036776  BUTH      343             0.0000000000
     21950       978  BUTH      LPO22          14.2092893031      -23.4788230044       -3.6129877473  BUTH      343             0.0000000000
     21951       979  BUTH      C1            -19.8399524477       -1.6576794259       10.0819381706  BUTH      344             0.0000000000
     21952       979  BUTH      DC1           -19.9005044389       -1.6174899241       10.0308772575  BUTH      344             0.0000000000
     21953       979  BUTH      C2            -20.6156814677       -0.9505674455       11.1877601350  BUTH      344             0.0000000000
     21954       979  BUTH      DC2           -20.6756674455       -1.0136038136       11.1869092768  BUTH      344             0.0000000000
     21955       979  BUTH      C3            -20.8106627627        0.5541098872       10.9119628455  BUTH      344             0.0000000000
     21956       979  BUTH      DC3           -20.7852884502        0.5447145931       10.8977144083  BUTH      344             0.0000000000
     21957       979  BUTH      C4            -19.6923811739        1.3132341064       10.7175114608  BUTH      344             0.0000000000
     21958       979  BUTH      DC4           -19.7155762106        1.2948861600       10.6986112978  BUTH      344             0.0000000000
     21959       979  BUTH      O1            -19.5110923936        1.6230315047        9.5243983262  BUTH      344             0.0000000000
     21960       979  BUTH      DO1           -19.5095768214        1.6380432447        9.5355569181  BUTH      344             0.0000000000
     21961       979  BUTH      O2            -19.3060320234        2.1057772713       11.6042341159  BUTH      344             0.0000000000
     21962       979  BUTH      DO2           -19.3375326111        2.0838190759       11.5954856377  BUTH      344             0.0000000000
     21963       979  BUTH      H1            -20.3159836195       -1.5450918548        9.0844215723  BUTH      344             0.0000000000
     21964       979  BUTH      H2            -18.8127957214       -1.2393696225       10.0164632228  BUTH      344             0.0000000000
     21965       979  BUTH      H3            -19.7202219422       -2.7372764097       10.3152961758  BUTH      344             0.0000000000
     21966       979  BUTH      H4            -20.0477375379       -1.0598211323       12.1363508395  BUTH      344             0.0000000000
     21967       979  BUTH      H5            -21.6032323004       -1.4333803344       11.3488690075  BUTH      344             0.0000000000
     21968       979  BUTH      H6            -21.3804868219        0.9235989394       11.7912235480  BUTH      344             0.0000000000
     21969       979  BUTH      H7            -21.5436323086        0.5940340373       10.0780067873  BUTH      344             0.0000000000
     21970       979  BUTH      H8            -18.6980067598        2.6800510186       11.1128941704  BUTH      344             0.0000000000
     21971       979  BUTH      H9            -18.7993679348        2.2635554813        9.3756087722  BUTH      344             0.0000000000
     21972       979  BUTH      LPO11         -19.7661907797        1.4889183712        9.3258070855  BUTH      344             0.0000000000
     21973       979  BUTH      LPO12         -19.2211583054        1.8166740248        9.4937258816  BUTH      344             0.0000000000
     21974       979  BUTH      LPO21         -19.5740203560        2.3264298842       11.6488959337  BUTH      344             0.0000000000
     21975       979  BUTH      LPO22         -19.0756106409        1.9221142835       11.7931094542  BUTH      344             0.0000000000
     21976       980  BUTH      C1              7.5400975557       14.8325531168      -21.0960017872  BUTH      345             0.0000000000
     21977       980  BUTH      DC1             7.5290572948       14.8746080073      -21.1392056560  BUTH      345             0.0000000000
     21978       980  BUTH      C2              8.5169908117       15.8814307606      -20.5748652816  BUTH      345             0.0000000000
     21979       980  BUTH      DC2             8.5561991951       15.8549697260      -20.5784994531  BUTH      345             0.0000000000
     21980       980  BUTH      C3              7.7651498357       17.1025443045      -20.0274239183  BUTH      345             0.0000000000
     21981       980  BUTH      DC3             7.7364961158       17.1128182416      -20.0597344562  BUTH      345             0.0000000000
     21982       980  BUTH      C4              6.8195099329       17.5298665933      -20.9056693825  BUTH      345             0.0000000000
     21983       980  BUTH      DC4             6.8313969935       17.5259546467      -20.9173084073  BUTH      345             0.0000000000
     21984       980  BUTH      O1              5.6525333593       17.4096473849      -20.5162573111  BUTH      345             0.0000000000
     21985       980  BUTH      DO1             5.6837640349       17.4619710620      -20.5485429926  BUTH      345             0.0000000000
     21986       980  BUTH      O2              7.0158884328       18.4678436713      -21.6828301621  BUTH      345             0.0000000000
     21987       980  BUTH      DO2             7.0323740064       18.4711958150      -21.6960765052  BUTH      345             0.0000000000
     21988       980  BUTH      H1              6.8521533931       14.5213974741      -20.2809950406  BUTH      345             0.0000000000
     21989       980  BUTH      H2              6.9135730302       15.2194956552      -21.9279053205  BUTH      345             0.0000000000
     21990       980  BUTH      H3              8.0849081953       13.9279257500      -21.4411853549  BUTH      345             0.0000000000
     21991       980  BUTH      H4              9.2006636114       16.2007710725      -21.3903002995  BUTH      345             0.0000000000
     21992       980  BUTH      H5              9.1417708311       15.4409976074      -19.7686459771  BUTH      345             0.0000000000
     21993       980  BUTH      H6              8.5344440021       17.8688861657      -19.7924183049  BUTH      345             0.0000000000
     21994       980  BUTH      H7              7.3731909734       16.7933314540      -19.0349136345  BUTH      345             0.0000000000
     21995       980  BUTH      H8              6.1443548663       18.8714874552      -21.5471801046  BUTH      345             0.0000000000
     21996       980  BUTH      H9              4.9962087007       17.8515525823      -21.0756487117  BUTH      345             0.0000000000
     21997       980  BUTH      LPO11           5.6471590243       17.2690217043      -20.1957958712  BUTH      345             0.0000000000
     21998       980  BUTH      LPO12           5.4318806988       17.5269882910      -20.7612950942  BUTH      345             0.0000000000
     21999       980  BUTH      LPO21           7.2225532668       18.6898641091      -21.5081974859  BUTH      345             0.0000000000
     22000       980  BUTH      LPO22           6.9793260540       18.3309345531      -22.0028599823  BUTH      345             0.0000000000
     22001       981  BUTH      C1             -2.0518358044      -17.6712068756        5.3974065685  BUTH      346             0.0000000000
     22002       981  BUTH      DC1            -2.0624289476      -17.6749078516        5.4037448714  BUTH      346             0.0000000000
     22003       981  BUTH      C2             -3.1491817564      -17.4327599356        6.4252338090  BUTH      346             0.0000000000
     22004       981  BUTH      DC2            -3.1609357899      -17.3200333652        6.3737459870  BUTH      346             0.0000000000
     22005       981  BUTH      C3             -3.2511773526      -18.5078226781        7.5206811274  BUTH      346             0.0000000000
     22006       981  BUTH      DC3            -3.2449010835      -18.4858598443        7.4186008649  BUTH      346             0.0000000000
     22007       981  BUTH      C4             -3.4480978585      -19.8267221345        7.2451167912  BUTH      346             0.0000000000
     22008       981  BUTH      DC4            -3.4455617267      -19.7940763506        7.2248332776  BUTH      346             0.0000000000
     22009       981  BUTH      O1             -2.4154179811      -20.4669481829        6.9876118578  BUTH      346             0.0000000000
     22010       981  BUTH      DO1            -2.4598315621      -20.4680565507        6.9762115373  BUTH      346             0.0000000000
     22011       981  BUTH      O2             -4.5601578112      -20.2673124079        6.8314702662  BUTH      346             0.0000000000
     22012       981  BUTH      DO2            -4.5628945325      -20.2367725894        6.8178781420  BUTH      346             0.0000000000
     22013       981  BUTH      H1             -1.0700031403      -17.8313932847        5.8920437438  BUTH      346             0.0000000000
     22014       981  BUTH      H2             -2.2717752185      -18.5817440230        4.8000207987  BUTH      346             0.0000000000
     22015       981  BUTH      H3             -1.9521496083      -16.8165811449        4.6945562838  BUTH      346             0.0000000000
     22016       981  BUTH      H4             -4.1357795135      -17.4132946520        5.9147762022  BUTH      346             0.0000000000
     22017       981  BUTH      H5             -2.9829823453      -16.4552532765        6.9264119093  BUTH      346             0.0000000000
     22018       981  BUTH      H6             -4.0679956413      -18.1556012961        8.1863153973  BUTH      346             0.0000000000
     22019       981  BUTH      H7             -2.3409508493      -18.3799187137        8.1447398514  BUTH      346             0.0000000000
     22020       981  BUTH      H8             -4.3743686094      -21.2190853820        6.8540662459  BUTH      346             0.0000000000
     22021       981  BUTH      H9             -2.5638073673      -21.3976326282        6.7622941856  BUTH      346             0.0000000000
     22022       981  BUTH      LPO11          -2.1365354793      -20.2561435949        7.0045226773  BUTH      346             0.0000000000
     22023       981  BUTH      LPO12          -2.4952399658      -20.8011634533        6.9210641021  BUTH      346             0.0000000000
     22024       981  BUTH      LPO21          -4.7761113509      -20.2394938899        7.1054961751  BUTH      346             0.0000000000
     22025       981  BUTH      LPO22          -4.5568078168      -20.2113929552        6.4859825062  BUTH      346             0.0000000000
     22026       982  BUTH      C1             16.1017916291      -10.3815777780       12.5972815027  BUTH      347             0.0000000000
     22027       982  BUTH      DC1            16.0921509058      -10.3163729286       12.5656661608  BUTH      347             0.0000000000
     22028       982  BUTH      C2             16.8318222399       -9.7245999387       11.4366980349  BUTH      347             0.0000000000
     22029       982  BUTH      DC2            16.8910666496       -9.7645415843       11.4191179082  BUTH      347             0.0000000000
     22030       982  BUTH      C3             16.7178019881       -8.1842319091       11.4507049267  BUTH      347             0.0000000000
     22031       982  BUTH      DC3            16.6948609212       -8.1809434102       11.4371983982  BUTH      347             0.0000000000
     22032       982  BUTH      C4             15.4543468955       -7.6875640537       11.3271870890  BUTH      347             0.0000000000
     22033       982  BUTH      DC4            15.4682987925       -7.6996424684       11.3232098946  BUTH      347             0.0000000000
     22034       982  BUTH      O1             15.1063687434       -6.9519706907       12.2455678915  BUTH      347             0.0000000000
     22035       982  BUTH      DO1            15.0806680057       -6.9314767328       12.1527317980  BUTH      347             0.0000000000
     22036       982  BUTH      O2             15.0819989493       -7.2010967991       10.2986309792  BUTH      347             0.0000000000
     22037       982  BUTH      DO2            15.1061232833       -7.1977051636       10.2856451170  BUTH      347             0.0000000000
     22038       982  BUTH      H1             16.5280353437      -10.0559512021       13.5702175894  BUTH      347             0.0000000000
     22039       982  BUTH      H2             15.0180126367      -10.1373577787       12.5872471010  BUTH      347             0.0000000000
     22040       982  BUTH      H3             16.1965044899      -11.4882149020       12.5707343713  BUTH      347             0.0000000000
     22041       982  BUTH      H4             16.3955320902      -10.1125667097       10.4914712421  BUTH      347             0.0000000000
     22042       982  BUTH      H5             17.9017144835      -10.0223406979       11.4683528789  BUTH      347             0.0000000000
     22043       982  BUTH      H6             17.3559627471       -7.8379311973       10.6097842035  BUTH      347             0.0000000000
     22044       982  BUTH      H7             17.2690622543       -7.8537918593       12.3569292328  BUTH      347             0.0000000000
     22045       982  BUTH      H8             14.5284952342       -6.5452869231       10.7507891859  BUTH      347             0.0000000000
     22046       982  BUTH      H9             14.2224130130       -6.5653086586       12.1557027730  BUTH      347             0.0000000000
     22047       982  BUTH      LPO11          15.3648548951       -6.9222837212       12.4796695644  BUTH      347             0.0000000000
     22048       982  BUTH      LPO12          14.7799863865       -6.8381314140       12.1906572715  BUTH      347             0.0000000000
     22049       982  BUTH      LPO21          15.3501231406       -7.0053955377       10.1876785826  BUTH      347             0.0000000000
     22050       982  BUTH      LPO22          14.8427631953       -7.4238026861       10.1734577316  BUTH      347             0.0000000000
     22051       983  BUTH      C1              9.0647951902       19.1600689453       14.2157472826  BUTH      348             0.0000000000
     22052       983  BUTH      DC1             9.0449315542       19.1558195510       14.2312311836  BUTH      348             0.0000000000
     22053       983  BUTH      C2              8.5628259451       20.4774878270       14.7929323309  BUTH      348             0.0000000000
     22054       983  BUTH      DC2             8.6456595734       20.4755275758       14.8355777575  BUTH      348             0.0000000000
     22055       983  BUTH      C3              7.0528859650       20.4693839306       15.1236981376  BUTH      348             0.0000000000
     22056       983  BUTH      DC3             7.0847833889       20.4457796828       15.0946376243  BUTH      348             0.0000000000
     22057       983  BUTH      C4              6.1887803529       20.2103265111       14.1000076797  BUTH      348             0.0000000000
     22058       983  BUTH      DC4             6.2132592092       20.2198562151       14.1190625424  BUTH      348             0.0000000000
     22059       983  BUTH      O1              5.6681075175       19.0929689815       14.1393585634  BUTH      348             0.0000000000
     22060       983  BUTH      DO1             5.6464344370       19.1647999982       14.1197113186  BUTH      348             0.0000000000
     22061       983  BUTH      O2              5.4810194541       21.0715711494       13.5892712801  BUTH      348             0.0000000000
     22062       983  BUTH      DO2             5.4884226836       21.0755121017       13.6040592154  BUTH      348             0.0000000000
     22063       983  BUTH      H1              8.9062792889       18.3101352846       14.9134624708  BUTH      348             0.0000000000
     22064       983  BUTH      H2              8.5078865707       18.9176942405       13.2854632977  BUTH      348             0.0000000000
     22065       983  BUTH      H3             10.1428556822       19.2215706612       13.9543584640  BUTH      348             0.0000000000
     22066       983  BUTH      H4              8.7517386751       21.2698061301       14.0373764505  BUTH      348             0.0000000000
     22067       983  BUTH      H5              9.1409059539       20.7527913989       15.7008709008  BUTH      348             0.0000000000
     22068       983  BUTH      H6              6.8370815785       21.4652205658       15.5664834844  BUTH      348             0.0000000000
     22069       983  BUTH      H7              6.9483061737       19.7749178036       15.9845702918  BUTH      348             0.0000000000
     22070       983  BUTH      H8              4.8543447741       20.4567606853       13.1767340823  BUTH      348             0.0000000000
     22071       983  BUTH      H9              4.9921079321       18.9400788243       13.4621509437  BUTH      348             0.0000000000
     22072       983  BUTH      LPO11           5.7831412637       18.9170885578       14.4192394556  BUTH      348             0.0000000000
     22073       983  BUTH      LPO12           5.4520018446       19.0519502878       13.8671163829  BUTH      348             0.0000000000
     22074       983  BUTH      LPO21           5.2883658825       21.1986450762       13.8524001809  BUTH      348             0.0000000000
     22075       983  BUTH      LPO22           5.6605696320       21.1830251937       13.3102735567  BUTH      348             0.0000000000
     22076       984  BUTH      C1             18.7863546364       18.8402971890       20.5693710896  BUTH      349             0.0000000000
     22077       984  BUTH      DC1            18.8178694027       18.8722277279       20.5425518417  BUTH      349             0.0000000000
     22078       984  BUTH      C2             19.8536348666       19.9114339290       20.7692562172  BUTH      349             0.0000000000
     22079       984  BUTH      DC2            19.8514773994       19.9195870467       20.8462459359  BUTH      349             0.0000000000
     22080       984  BUTH      C3             19.9488536864       20.8750813992       19.5666499788  BUTH      349             0.0000000000
     22081       984  BUTH      DC3            19.9453899681       20.8357531214       19.5528991122  BUTH      349             0.0000000000
     22082       984  BUTH      C4             20.1121644560       20.2644758114       18.3635725555  BUTH      349             0.0000000000
     22083       984  BUTH      DC4            20.1238048415       20.2584014958       18.3778384090  BUTH      349             0.0000000000
     22084       984  BUTH      O1             19.2000368063       20.4181807794       17.5445938379  BUTH      349             0.0000000000
     22085       984  BUTH      DO1            19.2803442158       20.4078103349       17.5308629050  BUTH      349             0.0000000000
     22086       984  BUTH      O2             21.2115003695       20.0870006386       17.8509910411  BUTH      349             0.0000000000
     22087       984  BUTH      DO2            21.2227814152       20.0888462803       17.8572324858  BUTH      349             0.0000000000
     22088       984  BUTH      H1             17.7862499108       19.2948376743       20.4035263232  BUTH      349             0.0000000000
     22089       984  BUTH      H2             19.0076866729       18.2009492328       19.6881405177  BUTH      349             0.0000000000
     22090       984  BUTH      H3             18.7116825466       18.1745915409       21.4557012026  BUTH      349             0.0000000000
     22091       984  BUTH      H4             20.8395424402       19.4201646994       20.9140381239  BUTH      349             0.0000000000
     22092       984  BUTH      H5             19.6359704310       20.4848802719       21.6955944306  BUTH      349             0.0000000000
     22093       984  BUTH      H6             20.7918479424       21.5630956949       19.7909667489  BUTH      349             0.0000000000
     22094       984  BUTH      H7             19.0467604180       21.5213443929       19.6204354648  BUTH      349             0.0000000000
     22095       984  BUTH      H8             20.8589457881       20.0840097093       16.9473338483  BUTH      349             0.0000000000
     22096       984  BUTH      H9             19.3761408599       20.0511140261       16.6652700284  BUTH      349             0.0000000000
     22097       984  BUTH      LPO11          18.9478686801       20.6180062461       17.6823654568  BUTH      349             0.0000000000
     22098       984  BUTH      LPO12          19.2754459958       20.2481414141       17.2481143810  BUTH      349             0.0000000000
     22099       984  BUTH      LPO21          21.3703420617       20.3986233196       17.8636646967  BUTH      349             0.0000000000
     22100       984  BUTH      LPO22          21.2822925159       19.7477811887       17.9001706791  BUTH      349             0.0000000000
     22101       985  BUTH      C1             11.0038507197       15.3258964155       18.2319958676  BUTH      350             0.0000000000
     22102       985  BUTH      DC1            10.9864957389       15.3367187870       18.2256696270  BUTH      350             0.0000000000
     22103       985  BUTH      C2             10.9117519902       16.4028375733       19.3084511584  BUTH      350             0.0000000000
     22104       985  BUTH      DC2            10.9805941886       16.3564095411       19.3557602241  BUTH      350             0.0000000000
     22105       985  BUTH      C3              9.6078266969       17.2219130207       19.2231817714  BUTH      350             0.0000000000
     22106       985  BUTH      DC3             9.6506211816       17.2127207697       19.1863684823  BUTH      350             0.0000000000
     22107       985  BUTH      C4              9.2926004073       17.7394902821       18.0056800097  BUTH      350             0.0000000000
     22108       985  BUTH      DC4             9.3090000886       17.7320451367       18.0275532717  BUTH      350             0.0000000000
     22109       985  BUTH      O1              8.3545716884       17.1957852725       17.4098463950  BUTH      350             0.0000000000
     22110       985  BUTH      DO1             8.3876367795       17.2478206457       17.4129648209  BUTH      350             0.0000000000
     22111       985  BUTH      O2              9.6149152928       18.8899382351       17.6670936350  BUTH      350             0.0000000000
     22112       985  BUTH      DO2             9.6259918157       18.8836653221       17.6890827178  BUTH      350             0.0000000000
     22113       985  BUTH      H1             10.1448510630       14.6251992743       18.3059154608  BUTH      350             0.0000000000
     22114       985  BUTH      H2             10.9793076778       15.7792005523       17.2179771305  BUTH      350             0.0000000000
     22115       985  BUTH      H3             11.9428559567       14.7392518788       18.3238563765  BUTH      350             0.0000000000
     22116       985  BUTH      H4             11.7722664703       17.0972669879       19.2007310682  BUTH      350             0.0000000000
     22117       985  BUTH      H5             10.9700115101       15.9364638686       20.3151399869  BUTH      350             0.0000000000
     22118       985  BUTH      H6              9.6955303368       18.0130939718       19.9982054965  BUTH      350             0.0000000000
     22119       985  BUTH      H7              8.8084168360       16.5633349028       19.6251018342  BUTH      350             0.0000000000
     22120       985  BUTH      H8              9.0021312433       18.9956203968       16.9226294053  BUTH      350             0.0000000000
     22121       985  BUTH      H9              8.0769325162       17.6429549184       16.5962637023  BUTH      350             0.0000000000
     22122       985  BUTH      LPO11           8.2266165743       16.9330639232       17.6024729285  BUTH      350             0.0000000000
     22123       985  BUTH      LPO12           8.3009982957       17.3532881391       17.1019133851  BUTH      350             0.0000000000
     22124       985  BUTH      LPO21           9.4650841542       19.0991141136       17.9043615886  BUTH      350             0.0000000000
     22125       985  BUTH      LPO22           9.9181190833       18.8521222994       17.4963967796  BUTH      350             0.0000000000
     22126       986  BUTH      C1            -23.7336270424       20.4860027894       23.5195550570  BUTH      351             0.0000000000
     22127       986  BUTH      DC1           -23.6966854509       20.5285047989       23.5584984499  BUTH      351             0.0000000000
     22128       986  BUTH      C2            -22.9469471045       19.9532974617       24.7012121888  BUTH      351             0.0000000000
     22129       986  BUTH      DC2           -23.0103391582       19.9554011673       24.7507966230  BUTH      351             0.0000000000
     22130       986  BUTH      C3            -21.5667602671       20.6116037252       24.8964916857  BUTH      351             0.0000000000
     22131       986  BUTH      DC3           -21.5858171412       20.6398925643       24.8941192766  BUTH      351             0.0000000000
     22132       986  BUTH      C4            -20.7656367202       20.6585348760       23.7911279654  BUTH      351             0.0000000000
     22133       986  BUTH      DC4           -20.7894125036       20.6744411236       23.8345340787  BUTH      351             0.0000000000
     22134       986  BUTH      O1            -20.6058993771       21.8476886022       23.4561835863  BUTH      351             0.0000000000
     22135       986  BUTH      DO1           -20.5988531911       21.8327634187       23.4852101203  BUTH      351             0.0000000000
     22136       986  BUTH      O2            -19.7813280850       19.8560033294       23.6964758619  BUTH      351             0.0000000000
     22137       986  BUTH      DO2           -19.7940107284       19.8785945859       23.7450719165  BUTH      351             0.0000000000
     22138       986  BUTH      H1            -23.9369641725       21.5751500653       23.6016112876  BUTH      351             0.0000000000
     22139       986  BUTH      H2            -23.1793104232       20.3029304411       22.5742833488  BUTH      351             0.0000000000
     22140       986  BUTH      H3            -24.7030312024       19.9497032334       23.4361322730  BUTH      351             0.0000000000
     22141       986  BUTH      H4            -22.7821893953       18.8690242285       24.5236524672  BUTH      351             0.0000000000
     22142       986  BUTH      H5            -23.5575307048       20.0650921760       25.6226299058  BUTH      351             0.0000000000
     22143       986  BUTH      H6            -21.0707595422       20.0421518380       25.7113713273  BUTH      351             0.0000000000
     22144       986  BUTH      H7            -21.7921527181       21.5909628681       25.3701739762  BUTH      351             0.0000000000
     22145       986  BUTH      H8            -19.4800330346       19.9729824785       22.7819064707  BUTH      351             0.0000000000
     22146       986  BUTH      H9            -19.9700177930       21.9744110771       22.7360745492  BUTH      351             0.0000000000
     22147       986  BUTH      LPO11         -20.7800361626       22.0581222000       23.6750307496  BUTH      351             0.0000000000
     22148       986  BUTH      LPO12         -20.4010625008       21.8657997304       23.1729631048  BUTH      351             0.0000000000
     22149       986  BUTH      LPO21         -19.5192530995       20.0165804843       23.8639025007  BUTH      351             0.0000000000
     22150       986  BUTH      LPO22         -19.9273174351       19.5391452666       23.6684031413  BUTH      351             0.0000000000
     22151       987  BUTH      C1            -14.6025165222       13.0906117058      -12.3713414997  BUTH      352             0.0000000000
     22152       987  BUTH      DC1           -14.5543985788       13.1151175997      -12.3799013131  BUTH      352             0.0000000000
     22153       987  BUTH      C2            -14.8692875291       13.4856968180      -10.9248014925  BUTH      352             0.0000000000
     22154       987  BUTH      DC2           -14.8963048379       13.4418925489      -10.9353568260  BUTH      352             0.0000000000
     22155       987  BUTH      C3            -14.7917454867       15.0128779382      -10.7094207286  BUTH      352             0.0000000000
     22156       987  BUTH      DC3           -14.7504520445       15.0041064439      -10.7363822078  BUTH      352             0.0000000000
     22157       987  BUTH      C4            -13.6556187766       15.6009205145      -11.1763538911  BUTH      352             0.0000000000
     22158       987  BUTH      DC4           -13.6553712038       15.5929421171      -11.1900382620  BUTH      352             0.0000000000
     22159       987  BUTH      O1            -13.7544161459       16.4062038905      -12.1170488666  BUTH      352             0.0000000000
     22160       987  BUTH      DO1           -13.6989973096       16.4106911565      -12.0911531288  BUTH      352             0.0000000000
     22161       987  BUTH      O2            -12.6175605527       15.6409603549      -10.5325640883  BUTH      352             0.0000000000
     22162       987  BUTH      DO2           -12.6289480143       15.6374530084      -10.5432773243  BUTH      352             0.0000000000
     22163       987  BUTH      H1            -15.3115567047       13.6159071331      -13.0463583380  BUTH      352             0.0000000000
     22164       987  BUTH      H2            -13.5743160648       13.3680759920      -12.6877880056  BUTH      352             0.0000000000
     22165       987  BUTH      H3            -14.7475702247       11.9982253653      -12.5126656237  BUTH      352             0.0000000000
     22166       987  BUTH      H4            -14.1349195969       12.9811647151      -10.2611207731  BUTH      352             0.0000000000
     22167       987  BUTH      H5            -15.8720625011       13.1165027889      -10.6207305707  BUTH      352             0.0000000000
     22168       987  BUTH      H6            -14.9057149732       15.1560900929       -9.6136003805  BUTH      352             0.0000000000
     22169       987  BUTH      H7            -15.7289050174       15.4309875231      -11.1351405766  BUTH      352             0.0000000000
     22170       987  BUTH      H8            -12.2530958767       16.4650342701      -10.8916847951  BUTH      352             0.0000000000
     22171       987  BUTH      H9            -12.9255232825       16.8460209529      -12.3588309431  BUTH      352             0.0000000000
     22172       987  BUTH      LPO11         -14.0894478984       16.4371213617      -12.2134741476  BUTH      352             0.0000000000
     22173       987  BUTH      LPO12         -13.4384254541       16.5304874100      -12.2019222397  BUTH      352             0.0000000000
     22174       987  BUTH      LPO21         -12.7145264280       15.7462950124      -10.2131862103  BUTH      352             0.0000000000
     22175       987  BUTH      LPO22         -12.4086211668       15.4052933210      -10.6852250924  BUTH      352             0.0000000000
     22176       988  BUTH      C1            -17.2329949851       -8.8787919875       11.4032111021  BUTH      353             0.0000000000
     22177       988  BUTH      DC1           -17.2750234204       -8.9275044371       11.3470836416  BUTH      353             0.0000000000
     22178       988  BUTH      C2            -17.1951607382       -9.9254363963       10.2983803844  BUTH      353             0.0000000000
     22179       988  BUTH      DC2           -17.1467340174       -9.8845796433       10.2014542820  BUTH      353             0.0000000000
     22180       988  BUTH      C3            -18.5623669823      -10.6101034041       10.1109433015  BUTH      353             0.0000000000
     22181       988  BUTH      DC3           -18.5673323377      -10.5899577659       10.0995868210  BUTH      353             0.0000000000
     22182       988  BUTH      C4            -19.0851676747      -11.1354657012       11.2557123855  BUTH      353             0.0000000000
     22183       988  BUTH      DC4           -19.0739050475      -11.1124767613       11.2198609114  BUTH      353             0.0000000000
     22184       988  BUTH      O1            -20.0800500245      -10.5084303605       11.6508803073  BUTH      353             0.0000000000
     22185       988  BUTH      DO1           -20.0691576650      -10.5584502677       11.6352894894  BUTH      353             0.0000000000
     22186       988  BUTH      O2            -19.1207280530      -12.3607389146       11.4301764607  BUTH      353             0.0000000000
     22187       988  BUTH      DO2           -19.1331959174      -12.3383436038       11.4049286449  BUTH      353             0.0000000000
     22188       988  BUTH      H1            -18.0134225080       -8.1069792498       11.2312838472  BUTH      353             0.0000000000
     22189       988  BUTH      H2            -17.4494330850       -9.3456844321       12.3878364088  BUTH      353             0.0000000000
     22190       988  BUTH      H3            -16.2523656735       -8.3665747893       11.5048019240  BUTH      353             0.0000000000
     22191       988  BUTH      H4            -16.4569104958      -10.6989038431       10.6001347356  BUTH      353             0.0000000000
     22192       988  BUTH      H5            -16.8115407756       -9.4754369578        9.3578181954  BUTH      353             0.0000000000
     22193       988  BUTH      H6            -18.4200591798      -11.3915093021        9.3341072102  BUTH      353             0.0000000000
     22194       988  BUTH      H7            -19.2156526888       -9.8478332571        9.6350409914  BUTH      353             0.0000000000
     22195       988  BUTH      H8            -19.7847684436      -12.4007669175       12.1361142191  BUTH      353             0.0000000000
     22196       988  BUTH      H9            -20.5659212311      -10.9407410740       12.3692100489  BUTH      353             0.0000000000
     22197       988  BUTH      LPO11         -20.1481174131      -10.2426364594       11.4335776779  BUTH      353             0.0000000000
     22198       988  BUTH      LPO12         -20.2039754361      -10.6532187268       11.9444426029  BUTH      353             0.0000000000
     22199       988  BUTH      LPO21         -19.3067361243      -12.4842514518       11.1606478898  BUTH      353             0.0000000000
     22200       988  BUTH      LPO22         -18.8304464782      -12.4338749076       11.6115262163  BUTH      353             0.0000000000
     22201       989  BUTH      C1            -19.9723122863       -3.2474713984       -1.7253259100  BUTH      354             0.0000000000
     22202       989  BUTH      DC1           -19.9560829667       -3.2399273124       -1.7148885932  BUTH      354             0.0000000000
     22203       989  BUTH      C2            -19.0819260505       -2.2611921702       -0.9824971411  BUTH      354             0.0000000000
     22204       989  BUTH      DC2           -19.0562238070       -2.3519011992       -0.8800728504  BUTH      354             0.0000000000
     22205       989  BUTH      C3            -19.2639288576       -0.7983712818       -1.4441384120  BUTH      354             0.0000000000
     22206       989  BUTH      DC3           -19.2580027582       -0.9099613678       -1.4683481589  BUTH      354             0.0000000000
     22207       989  BUTH      C4            -19.1241607611       -0.4492688845       -2.7538352618  BUTH      354             0.0000000000
     22208       989  BUTH      DC4           -19.1300374435       -0.4863984712       -2.7427628626  BUTH      354             0.0000000000
     22209       989  BUTH      O1            -20.1473049072       -0.5527640539       -3.4542131778  BUTH      354             0.0000000000
     22210       989  BUTH      DO1           -20.0968007744       -0.5553310348       -3.4815556230  BUTH      354             0.0000000000
     22211       989  BUTH      O2            -18.0364506490       -0.5926514288       -3.3558438967  BUTH      354             0.0000000000
     22212       989  BUTH      DO2           -18.0387733823       -0.6087148133       -3.3518047891  BUTH      354             0.0000000000
     22213       989  BUTH      H1            -21.0328121855       -2.9177692409       -1.6943832005  BUTH      354             0.0000000000
     22214       989  BUTH      H2            -19.6871847867       -3.2958105275       -2.7980265387  BUTH      354             0.0000000000
     22215       989  BUTH      H3            -19.9107935048       -4.2741230322       -1.3051796702  BUTH      354             0.0000000000
     22216       989  BUTH      H4            -18.0173790716       -2.5422587643       -1.1310309740  BUTH      354             0.0000000000
     22217       989  BUTH      H5            -19.3041370680       -2.2997845797        0.1053695281  BUTH      354             0.0000000000
     22218       989  BUTH      H6            -18.5179778453       -0.2264457182       -0.8518722244  BUTH      354             0.0000000000
     22219       989  BUTH      H7            -20.2365240416       -0.4479517836       -1.0372160807  BUTH      354             0.0000000000
     22220       989  BUTH      H8            -18.2822398689       -0.1724514107       -4.1948430648  BUTH      354             0.0000000000
     22221       989  BUTH      H9            -20.0159673990       -0.3705815511       -4.3968270940  BUTH      354             0.0000000000
     22222       989  BUTH      LPO11         -20.4140186158       -0.6695523415       -3.2599857505  BUTH      354             0.0000000000
     22223       989  BUTH      LPO12         -20.0774668617       -0.4558905362       -3.7832088753  BUTH      354             0.0000000000
     22224       989  BUTH      LPO21         -17.8254047313       -0.3481712940       -3.2209769834  BUTH      354             0.0000000000
     22225       989  BUTH      LPO22         -18.0298657680       -0.9291098048       -3.4520332960  BUTH      354             0.0000000000
     22226       990  BUTH      C1             22.9264157835        0.0104945697       23.5836255500  BUTH      355             0.0000000000
     22227       990  BUTH      DC1            22.8667517803       -0.0225931286       23.5780181498  BUTH      355             0.0000000000
     22228       990  BUTH      C2             22.1570701650       -0.7604205324       22.5209823786  BUTH      355             0.0000000000
     22229       990  BUTH      DC2            22.2099798620       -0.8086383406       22.4849386442  BUTH      355             0.0000000000
     22230       990  BUTH      C3             20.8060446549       -0.0852177734       22.2092086591  BUTH      355             0.0000000000
     22231       990  BUTH      DC3            20.7931654380       -0.0926968274       22.2682539234  BUTH      355             0.0000000000
     22232       990  BUTH      C4             20.0019779720        0.2101470507       23.2688522473  BUTH      355             0.0000000000
     22233       990  BUTH      DC4            20.0006643778        0.1961323072       23.2814756086  BUTH      355             0.0000000000
     22234       990  BUTH      O1             19.6376568336        1.3860489224       23.3748675808  BUTH      355             0.0000000000
     22235       990  BUTH      DO1            19.5782292257        1.3200210404       23.3964879404  BUTH      355             0.0000000000
     22236       990  BUTH      O2             19.1321029984       -0.5375034252       23.6623648350  BUTH      355             0.0000000000
     22237       990  BUTH      DO2            19.1322564357       -0.5535013474       23.6739888315  BUTH      355             0.0000000000
     22238       990  BUTH      H1             23.0815926437        1.0641730952       23.2673935057  BUTH      355             0.0000000000
     22239       990  BUTH      H2             22.3834349482        0.0362186285       24.5525585126  BUTH      355             0.0000000000
     22240       990  BUTH      H3             23.9315224417       -0.4282498835       23.7613469934  BUTH      355             0.0000000000
     22241       990  BUTH      H4             21.9991649738       -1.8118170837       22.8433986380  BUTH      355             0.0000000000
     22242       990  BUTH      H5             22.7531348814       -0.7743366706       21.5835208081  BUTH      355             0.0000000000
     22243       990  BUTH      H6             20.3071439070       -0.7486650911       21.4707936672  BUTH      355             0.0000000000
     22244       990  BUTH      H7             21.1033849251        0.8091699577       21.6210077140  BUTH      355             0.0000000000
     22245       990  BUTH      H8             18.5191417019        0.1927551885       23.8409728029  BUTH      355             0.0000000000
     22246       990  BUTH      H9             19.0075732600        1.5439212618       24.0939169635  BUTH      355             0.0000000000
     22247       990  BUTH      LPO11          19.7708667613        1.5766861846       23.1133096533  BUTH      355             0.0000000000
     22248       990  BUTH      LPO12          19.4338549525        1.4232579242       23.6569673565  BUTH      355             0.0000000000
     22249       990  BUTH      LPO21          18.9939803789       -0.6782803190       23.3732212579  BUTH      355             0.0000000000
     22250       990  BUTH      LPO22          19.2296362011       -0.6302192307       23.9854608792  BUTH      355             0.0000000000
     22251       991  BUTH      C1              5.0248315542       -4.3611938706       -7.2336864757  BUTH      356             0.0000000000
     22252       991  BUTH      DC1             5.0663213483       -4.3451360678       -7.2279484814  BUTH      356             0.0000000000
     22253       991  BUTH      C2              4.4258101988       -3.3107357969       -8.1654834754  BUTH      356             0.0000000000
     22254       991  BUTH      DC2             4.3894786465       -3.3679930086       -8.1455291926  BUTH      356             0.0000000000
     22255       991  BUTH      C3              5.4857457386       -2.3715755813       -8.7892160130  BUTH      356             0.0000000000
     22256       991  BUTH      DC3             5.5310752452       -2.3862765978       -8.7183351224  BUTH      356             0.0000000000
     22257       991  BUTH      C4              6.3645560032       -1.8531036667       -7.8891847952  BUTH      356             0.0000000000
     22258       991  BUTH      DC4             6.3817105139       -1.8586445333       -7.8795530531  BUTH      356             0.0000000000
     22259       991  BUTH      O1              7.5561280904       -2.1790962677       -7.9857026547  BUTH      356             0.0000000000
     22260       991  BUTH      DO1             7.5513974082       -2.1234862669       -7.9525360232  BUTH      356             0.0000000000
     22261       991  BUTH      O2              6.1927480190       -0.8369012271       -7.2668796440  BUTH      356             0.0000000000
     22262       991  BUTH      DO2             6.2059811173       -0.8453030384       -7.2639638714  BUTH      356             0.0000000000
     22263       991  BUTH      H1              5.7660444119       -4.9900083446       -7.7717541828  BUTH      356             0.0000000000
     22264       991  BUTH      H2              5.5366439942       -3.8875176905       -6.3688165983  BUTH      356             0.0000000000
     22265       991  BUTH      H3              4.2350019763       -5.0338796854       -6.8362144231  BUTH      356             0.0000000000
     22266       991  BUTH      H4              3.6990366454       -2.6855761811       -7.6039706463  BUTH      356             0.0000000000
     22267       991  BUTH      H5              3.8583023493       -3.7945859697       -8.9889789830  BUTH      356             0.0000000000
     22268       991  BUTH      H6              4.9039086657       -1.5889037750       -9.3213921733  BUTH      356             0.0000000000
     22269       991  BUTH      H7              5.9581671766       -2.9493005477       -9.6122426519  BUTH      356             0.0000000000
     22270       991  BUTH      H8              7.1343145778       -0.6441080652       -7.1357948927  BUTH      356             0.0000000000
     22271       991  BUTH      H9              8.1467804911       -1.7273278602       -7.3644168529  BUTH      356             0.0000000000
     22272       991  BUTH      LPO11           7.5987680061       -2.3985137192       -8.2550311150  BUTH      356             0.0000000000
     22273       991  BUTH      LPO12           7.7437144598       -2.0226645694       -7.7350226240  BUTH      356             0.0000000000
     22274       991  BUTH      LPO21           6.1057853686       -0.5976074831       -7.5070379284  BUTH      356             0.0000000000
     22275       991  BUTH      LPO22           6.0982951538       -0.9420269863       -6.9466809073  BUTH      356             0.0000000000
     22276       992  BUTH      C1              8.9252854099      -16.3106675543       11.7786716785  BUTH      357             0.0000000000
     22277       992  BUTH      DC1             8.8855038231      -16.3127018586       11.7881580934  BUTH      357             0.0000000000
     22278       992  BUTH      C2              8.2868793256      -15.6442882281       12.9949110966  BUTH      357             0.0000000000
     22279       992  BUTH      DC2             8.3585769746      -15.5894703782       13.0132178470  BUTH      357             0.0000000000
     22280       992  BUTH      C3              6.9977792356      -16.3491988478       13.4713618244  BUTH      357             0.0000000000
     22281       992  BUTH      DC3             7.0140952677      -16.3412161161       13.4190370815  BUTH      357             0.0000000000
     22282       992  BUTH      C4              6.0444778095      -16.5353628209       12.5189773790  BUTH      357             0.0000000000
     22283       992  BUTH      DC4             6.0671455830      -16.5305612115       12.5202160297  BUTH      357             0.0000000000
     22284       992  BUTH      O1              5.9099934084      -17.6981035284       12.1158115803  BUTH      357             0.0000000000
     22285       992  BUTH      DO1             5.8895731154      -17.6612875547       12.1153885744  BUTH      357             0.0000000000
     22286       992  BUTH      O2              5.1438242373      -15.7055774374       12.2789140408  BUTH      357             0.0000000000
     22287       992  BUTH      DO2             5.1650034474      -15.7010039537       12.2792535623  BUTH      357             0.0000000000
     22288       992  BUTH      H1              9.1650855522      -17.3745419431       11.9907758472  BUTH      357             0.0000000000
     22289       992  BUTH      H2              8.2464261634      -16.2870059359       10.8995179649  BUTH      357             0.0000000000
     22290       992  BUTH      H3              9.8738463755      -15.8071841579       11.4939655770  BUTH      357             0.0000000000
     22291       992  BUTH      H4              8.0392967445      -14.5911494713       12.7420818567  BUTH      357             0.0000000000
     22292       992  BUTH      H5              9.0158014465      -15.6416144008       13.8333539346  BUTH      357             0.0000000000
     22293       992  BUTH      H6              6.6040194081      -15.7403082989       14.3131019857  BUTH      357             0.0000000000
     22294       992  BUTH      H7              7.3302038010      -17.2885710747       13.9626811990  BUTH      357             0.0000000000
     22295       992  BUTH      H8              4.4609248490      -16.3077858271       11.9444092089  BUTH      357             0.0000000000
     22296       992  BUTH      H9              5.1872530225      -17.8237919353       11.4827162013  BUTH      357             0.0000000000
     22297       992  BUTH      LPO11           6.1354957609      -17.9088572075       12.2808315057  BUTH      357             0.0000000000
     22298       992  BUTH      LPO12           5.6584829945      -17.7122133394       11.8728230520  BUTH      357             0.0000000000
     22299       992  BUTH      LPO21           5.0096440045      -15.6252923206       12.5920433514  BUTH      357             0.0000000000
     22300       992  BUTH      LPO22           5.2420883085      -15.5496709051       11.9813618177  BUTH      357             0.0000000000
     22301       993  BUTH      C1             17.7541396977      -10.4890352991      -12.0583995242  BUTH      358             0.0000000000
     22302       993  BUTH      DC1            17.8252077702      -10.4096872105      -11.9956506362  BUTH      358             0.0000000000
     22303       993  BUTH      C2             18.1243015718      -10.2161287459      -10.6138906049  BUTH      358             0.0000000000
     22304       993  BUTH      DC2            18.0762484643      -10.1802144148      -10.5419598387  BUTH      358             0.0000000000
     22305       993  BUTH      C3             19.4824603501       -9.5072518798      -10.5328634875  BUTH      358             0.0000000000
     22306       993  BUTH      DC3            19.5191922147       -9.5070148055      -10.5474871776  BUTH      358             0.0000000000
     22307       993  BUTH      C4             20.4956366631      -10.1321603915      -11.2055819632  BUTH      358             0.0000000000
     22308       993  BUTH      DC4            20.5026261448      -10.1181943448      -11.1850070014  BUTH      358             0.0000000000
     22309       993  BUTH      O1             20.9648859389       -9.4522559061      -12.1317290805  BUTH      358             0.0000000000
     22310       993  BUTH      DO1            21.0144303759       -9.4811572357      -12.0806513675  BUTH      358             0.0000000000
     22311       993  BUTH      O2             21.4117106648      -10.7003210505      -10.5864191307  BUTH      358             0.0000000000
     22312       993  BUTH      DO2            21.4257141675      -10.6901805152      -10.5609601838  BUTH      358             0.0000000000
     22313       993  BUTH      H1             17.7459561107       -9.5642442814      -12.6740419569  BUTH      358             0.0000000000
     22314       993  BUTH      H2             18.4565535990      -11.2043031492      -12.5372811543  BUTH      358             0.0000000000
     22315       993  BUTH      H3             16.7410388004      -10.9395975357      -12.1286934984  BUTH      358             0.0000000000
     22316       993  BUTH      H4             18.1748842334      -11.1888809149      -10.0795539948  BUTH      358             0.0000000000
     22317       993  BUTH      H5             17.3330660114       -9.6024213582      -10.1326105095  BUTH      358             0.0000000000
     22318       993  BUTH      H6             19.6960031996       -9.4021385631       -9.4476576809  BUTH      358             0.0000000000
     22319       993  BUTH      H7             19.2743025176       -8.4714000501      -10.8763781214  BUTH      358             0.0000000000
     22320       993  BUTH      H8             22.0401644283      -10.5947077368      -11.3177136646  BUTH      358             0.0000000000
     22321       993  BUTH      H9             21.7699286131       -9.8165230833      -12.5294434474  BUTH      358             0.0000000000
     22322       993  BUTH      LPO11          20.7984085460       -9.1449818700      -12.1509109563  BUTH      358             0.0000000000
     22323       993  BUTH      LPO12          21.2218871526       -9.6283682016      -12.2912121063  BUTH      358             0.0000000000
     22324       993  BUTH      LPO21          21.5297415543      -10.4635710858      -10.3572507138  BUTH      358             0.0000000000
     22325       993  BUTH      LPO22          21.3384999382      -11.0420659192      -10.6051443617  BUTH      358             0.0000000000
     22326       994  BUTH      C1            -28.3607633406       20.3071235605       24.5937247216  BUTH      359             0.0000000000
     22327       994  BUTH      DC1           -28.3686360763       20.3533542045       24.5583337951  BUTH      359             0.0000000000
     22328       994  BUTH      C2            -27.5827089860       21.5993100119       24.3703183155  BUTH      359             0.0000000000
     22329       994  BUTH      DC2           -27.5620561978       21.6270630150       24.4542028163  BUTH      359             0.0000000000
     22330       994  BUTH      C3            -28.0056923618       22.3272840762       23.0704163365  BUTH      359             0.0000000000
     22331       994  BUTH      DC3           -28.0024023155       22.3180802732       23.0901767232  BUTH      359             0.0000000000
     22332       994  BUTH      C4            -27.9244308958       21.6313949757       21.8842162196  BUTH      359             0.0000000000
     22333       994  BUTH      DC4           -27.9637415451       21.6531717859       21.9251057670  BUTH      359             0.0000000000
     22334       994  BUTH      O1            -29.0720750368       21.4311976145       21.4173640822  BUTH      359             0.0000000000
     22335       994  BUTH      DO1           -29.0760778538       21.4434580152       21.4097453688  BUTH      359             0.0000000000
     22336       994  BUTH      O2            -26.9182419318       21.8976903838       21.1147195085  BUTH      359             0.0000000000
     22337       994  BUTH      DO2           -26.9556430927       21.9404738048       21.1792532660  BUTH      359             0.0000000000
     22338       994  BUTH      H1            -29.4536922592       20.4970913090       24.6548772755  BUTH      359             0.0000000000
     22339       994  BUTH      H2            -28.1884515287       19.5895318472       23.7632478867  BUTH      359             0.0000000000
     22340       994  BUTH      H3            -28.0478075246       19.8011316502       25.5319953883  BUTH      359             0.0000000000
     22341       994  BUTH      H4            -26.5008285360       21.3542155093       24.3088010214  BUTH      359             0.0000000000
     22342       994  BUTH      H5            -27.7268247764       22.2728122016       25.2420673847  BUTH      359             0.0000000000
     22343       994  BUTH      H6            -27.3549378142       23.2270850727       23.0358087184  BUTH      359             0.0000000000
     22344       994  BUTH      H7            -29.0048484351       22.7501803251       23.3095123502  BUTH      359             0.0000000000
     22345       994  BUTH      H8            -26.8766327788       21.2659817208       20.3797958094  BUTH      359             0.0000000000
     22346       994  BUTH      H9            -29.0907034530       21.0459915521       20.5284151121  BUTH      359             0.0000000000
     22347       994  BUTH      LPO11         -29.3134699299       21.5698296021       21.6295189257  BUTH      359             0.0000000000
     22348       994  BUTH      LPO12         -29.0496077672       21.2543754501       21.1161512937  BUTH      359             0.0000000000
     22349       994  BUTH      LPO21         -27.0212965827       22.1770420034       20.9307564373  BUTH      359             0.0000000000
     22350       994  BUTH      LPO22         -26.6400170085       21.7814187043       21.2924040283  BUTH      359             0.0000000000
     22351       995  BUTH      C1            -25.4770594381       -4.0160952343      -23.8953530068  BUTH      360             0.0000000000
     22352       995  BUTH      DC1           -25.5429253652       -4.0066840750      -23.8721828272  BUTH      360             0.0000000000
     22353       995  BUTH      C2            -25.7244110864       -2.6986852156      -23.1716387590  BUTH      360             0.0000000000
     22354       995  BUTH      DC2           -25.6794463704       -2.6909381253      -23.1399929453  BUTH      360             0.0000000000
     22355       995  BUTH      C3            -27.1517820047       -2.6179432893      -22.6087996110  BUTH      360             0.0000000000
     22356       995  BUTH      DC3           -27.1774670940       -2.6486250558      -22.6372334433  BUTH      360             0.0000000000
     22357       995  BUTH      C4            -28.0914743770       -3.0051378291      -23.5126966841  BUTH      360             0.0000000000
     22358       995  BUTH      DC4           -28.0919636250       -3.0040916054      -23.5150256935  BUTH      360             0.0000000000
     22359       995  BUTH      O1            -28.6845920465       -4.0588605660      -23.2408883035  BUTH      360             0.0000000000
     22360       995  BUTH      DO1           -28.7169462467       -4.0093487169      -23.2725292493  BUTH      360             0.0000000000
     22361       995  BUTH      O2            -28.7866862406       -2.2103794866      -24.1351488777  BUTH      360             0.0000000000
     22362       995  BUTH      DO2           -28.7915675552       -2.2049670765      -24.1318277830  BUTH      360             0.0000000000
     22363       995  BUTH      H1            -25.5307587842       -4.8814565582      -23.2006680715  BUTH      360             0.0000000000
     22364       995  BUTH      H2            -26.2084469211       -4.1790319171      -24.7156242969  BUTH      360             0.0000000000
     22365       995  BUTH      H3            -24.4756596427       -4.0221318903      -24.3764798187  BUTH      360             0.0000000000
     22366       995  BUTH      H4            -25.5677804362       -1.8721623686      -23.8973438122  BUTH      360             0.0000000000
     22367       995  BUTH      H5            -24.9837937596       -2.5463417418      -22.3576372596  BUTH      360             0.0000000000
     22368       995  BUTH      H6            -27.2859900702       -1.5710907905      -22.2617995514  BUTH      360             0.0000000000
     22369       995  BUTH      H7            -27.1414892925       -3.2164919403      -21.6728751630  BUTH      360             0.0000000000
     22370       995  BUTH      H8            -29.5240042251       -2.8308043330      -24.2462128211  BUTH      360             0.0000000000
     22371       995  BUTH      H9            -29.4218625558       -4.2681201551      -23.8338500396  BUTH      360             0.0000000000
     22372       995  BUTH      LPO11         -28.5649135450       -4.1891167696      -22.9388777446  BUTH      360             0.0000000000
     22373       995  BUTH      LPO12         -28.9188468980       -4.1321587519      -23.4903918917  BUTH      360             0.0000000000
     22374       995  BUTH      LPO21         -28.9149489614       -1.9919509156      -23.8936170292  BUTH      360             0.0000000000
     22375       995  BUTH      LPO22         -28.6517268063       -2.2037320808      -24.4580138078  BUTH      360             0.0000000000
     22376       996  BUTH      C1             22.0415944926      -20.1735255509        3.2558177837  BUTH      361             0.0000000000
     22377       996  BUTH      DC1            22.0594210767      -20.2042933002        3.2235096759  BUTH      361             0.0000000000
     22378       996  BUTH      C2             23.4029126028      -19.8399147894        2.6583264035  BUTH      361             0.0000000000
     22379       996  BUTH      DC2            23.3864925101      -19.7640180997        2.6400430574  BUTH      361             0.0000000000
     22380       996  BUTH      C3             23.9272396942      -20.9813923212        1.7698960175  BUTH      361             0.0000000000
     22381       996  BUTH      DC3            23.9100287454      -21.0066556611        1.8047189859  BUTH      361             0.0000000000
     22382       996  BUTH      C4             23.9699228601      -22.1880358702        2.3968557592  BUTH      361             0.0000000000
     22383       996  BUTH      DC4            23.9625676674      -22.1812654089        2.3963526530  BUTH      361             0.0000000000
     22384       996  BUTH      O1             23.1981623046      -23.0537473040        1.9582986731  BUTH      361             0.0000000000
     22385       996  BUTH      DO1            23.2532330587      -23.0703681876        1.9817230098  BUTH      361             0.0000000000
     22386       996  BUTH      O2             24.9949840477      -22.6191574250        2.8934620131  BUTH      361             0.0000000000
     22387       996  BUTH      DO2            24.9878315690      -22.6130287070        2.8847010673  BUTH      361             0.0000000000
     22388       996  BUTH      H1             21.2764781262      -20.3442543189        2.4685632918  BUTH      361             0.0000000000
     22389       996  BUTH      H2             22.0993368684      -21.0972859225        3.8703530510  BUTH      361             0.0000000000
     22390       996  BUTH      H3             21.6860434980      -19.3562299849        3.9190918206  BUTH      361             0.0000000000
     22391       996  BUTH      H4             24.1267840891      -19.6726848693        3.4843804121  BUTH      361             0.0000000000
     22392       996  BUTH      H5             23.3524657708      -18.8949208232        2.0762933106  BUTH      361             0.0000000000
     22393       996  BUTH      H6             24.9325197593      -20.6620064413        1.4210039837  BUTH      361             0.0000000000
     22394       996  BUTH      H7             23.3018703762      -20.9581012467        0.8519135874  BUTH      361             0.0000000000
     22395       996  BUTH      H8             24.8046188899      -23.5620232656        2.7683016630  BUTH      361             0.0000000000
     22396       996  BUTH      H9             23.3232808868      -23.9374484097        2.3356296898  BUTH      361             0.0000000000
     22397       996  BUTH      LPO11          23.0128013866      -22.9245446002        1.6910011022  BUTH      361             0.0000000000
     22398       996  BUTH      LPO12          23.2345053201      -23.3501087219        2.1409160194  BUTH      361             0.0000000000
     22399       996  BUTH      LPO21          25.2413301301      -22.5676661470        2.6502290877  BUTH      361             0.0000000000
     22400       996  BUTH      LPO22          24.9482209862      -22.5866160745        3.2387941381  BUTH      361             0.0000000000
     22401       997  BUTH      C1             -4.6726090870       19.4715728021        2.2347669620  BUTH      362             0.0000000000
     22402       997  BUTH      DC1            -4.6182649393       19.4710058804        2.2577131413  BUTH      362             0.0000000000
     22403       997  BUTH      C2             -6.0899576324       18.9931004012        1.9762015647  BUTH      362             0.0000000000
     22404       997  BUTH      DC2            -6.0693842260       19.0890800762        1.9674557681  BUTH      362             0.0000000000
     22405       997  BUTH      C3             -6.3915463363       17.6340733532        2.6540835369  BUTH      362             0.0000000000
     22406       997  BUTH      DC3            -6.3353526368       17.6707621355        2.6245551620  BUTH      362             0.0000000000
     22407       997  BUTH      C4             -5.6525677021       16.5331398285        2.3341488419  BUTH      362             0.0000000000
     22408       997  BUTH      DC4            -5.6450934600       16.5641936717        2.3389260469  BUTH      362             0.0000000000
     22409       997  BUTH      O1             -4.6919202146       16.2750635828        3.0775854124  BUTH      362             0.0000000000
     22410       997  BUTH      DO1            -4.6926610766       16.2584828275        3.0349624631  BUTH      362             0.0000000000
     22411       997  BUTH      O2             -5.6813939769       15.9700093798        1.2280639447  BUTH      362             0.0000000000
     22412       997  BUTH      DO2            -5.6636356668       15.9808898237        1.2353437140  BUTH      362             0.0000000000
     22413       997  BUTH      H1             -4.5158772206       19.4092725768        3.3328902722  BUTH      362             0.0000000000
     22414       997  BUTH      H2             -3.9379241959       18.8072086827        1.7315975793  BUTH      362             0.0000000000
     22415       997  BUTH      H3             -4.5199721215       20.5165087450        1.8896121659  BUTH      362             0.0000000000
     22416       997  BUTH      H4             -6.2846076872       18.9187465956        0.8849161447  BUTH      362             0.0000000000
     22417       997  BUTH      H5             -6.7973289272       19.7456232182        2.3856600628  BUTH      362             0.0000000000
     22418       997  BUTH      H6             -7.4632735951       17.4271340451        2.4469656828  BUTH      362             0.0000000000
     22419       997  BUTH      H7             -6.3834626500       17.8430936953        3.7452142123  BUTH      362             0.0000000000
     22420       997  BUTH      H8             -5.2276038563       15.1482327688        1.4723132604  BUTH      362             0.0000000000
     22421       997  BUTH      H9             -4.1900914119       15.4866360979        2.8216343354  BUTH      362             0.0000000000
     22422       997  BUTH      LPO11          -4.6715174903       16.5127491598        3.3336894837  BUTH      362             0.0000000000
     22423       997  BUTH      LPO12          -4.5271185868       15.9876231847        2.9648093466  BUTH      362             0.0000000000
     22424       997  BUTH      LPO21          -6.0100752893       15.8545740949        1.1942513744  BUTH      362             0.0000000000
     22425       997  BUTH      LPO22          -5.4320092359       16.1279416748        1.0400090561  BUTH      362             0.0000000000
     22426       998  BUTH      C1            -25.3581703002        7.9984422267      -18.8975752534  BUTH      363             0.0000000000
     22427       998  BUTH      DC1           -25.4003525382        8.0482913958      -18.8798527418  BUTH      363             0.0000000000
     22428       998  BUTH      C2            -25.3412887387        9.2208574114      -17.9978002255  BUTH      363             0.0000000000
     22429       998  BUTH      DC2           -25.2991502738        9.2365409459      -18.0018478799  BUTH      363             0.0000000000
     22430       998  BUTH      C3            -26.7098989025        9.4407389361      -17.3167851456  BUTH      363             0.0000000000
     22431       998  BUTH      DC3           -26.7759730088        9.4322608787      -17.3864839292  BUTH      363             0.0000000000
     22432       998  BUTH      C4            -27.7638887580        9.4033748860      -18.1634496862  BUTH      363             0.0000000000
     22433       998  BUTH      DC4           -27.7929090773        9.4193176417      -18.1845379550  BUTH      363             0.0000000000
     22434       998  BUTH      O1            -28.7365850882        8.7384096981      -17.7737601001  BUTH      363             0.0000000000
     22435       998  BUTH      DO1           -28.7686675675        8.8081143427      -17.8039563085  BUTH      363             0.0000000000
     22436       998  BUTH      O2            -28.1356694884       10.4094833320      -18.7816188196  BUTH      363             0.0000000000
     22437       998  BUTH      DO2           -28.1347240019       10.4355831546      -18.7989151740  BUTH      363             0.0000000000
     22438       998  BUTH      H1            -25.6234789279        7.0826126989      -18.3273221430  BUTH      363             0.0000000000
     22439       998  BUTH      H2            -26.0994789589        8.1123036714      -19.7172203258  BUTH      363             0.0000000000
     22440       998  BUTH      H3            -24.3645964200        7.8222353012      -19.3624226091  BUTH      363             0.0000000000
     22441       998  BUTH      H4            -25.0728854788       10.1170843132      -18.5970147378  BUTH      363             0.0000000000
     22442       998  BUTH      H5            -24.5582562021        9.1061579490      -17.2180405959  BUTH      363             0.0000000000
     22443       998  BUTH      H6            -26.6622402353       10.4358342387      -16.8250179330  BUTH      363             0.0000000000
     22444       998  BUTH      H7            -26.7377515207        8.7255220964      -16.4670733687  BUTH      363             0.0000000000
     22445       998  BUTH      H8            -29.0692151469       10.1568328848      -18.7070517011  BUTH      363             0.0000000000
     22446       998  BUTH      H9            -29.5085386953        8.7745043170      -18.3583503899  BUTH      363             0.0000000000
     22447       998  BUTH      LPO11         -28.6690929965        8.6006251150      -17.4591806567  BUTH      363             0.0000000000
     22448       998  BUTH      LPO12         -28.9917243381        8.7479129009      -18.0131627990  BUTH      363             0.0000000000
     22449       998  BUTH      LPO21         -28.1143238032       10.6729315333      -18.5521860256  BUTH      363             0.0000000000
     22450       998  BUTH      LPO22         -28.0698342254       10.3413833779      -19.1185581530  BUTH      363             0.0000000000
     22451       999  BUTH      C1              5.8624627146        9.1688252970        8.4508058819  BUTH      364             0.0000000000
     22452       999  BUTH      DC1             5.9378852675        9.1790974176        8.4395016333  BUTH      364             0.0000000000
     22453       999  BUTH      C2              6.5087028530       10.3535702687        7.7456323363  BUTH      364             0.0000000000
     22454       999  BUTH      DC2             6.4922428249       10.3859563789        7.7595534013  BUTH      364             0.0000000000
     22455       999  BUTH      C3              7.4481657985        9.9163619966        6.6000134892  BUTH      364             0.0000000000
     22456       999  BUTH      DC3             7.5138163046        9.8616804695        6.6385563334  BUTH      364             0.0000000000
     22457       999  BUTH      C4              8.3940731409        9.0261502532        6.9855463435  BUTH      364             0.0000000000
     22458       999  BUTH      DC4             8.4311709329        9.0184251242        7.0093616253  BUTH      364             0.0000000000
     22459       999  BUTH      O1              8.4076702797        7.9104103178        6.4560590211  BUTH      364             0.0000000000
     22460       999  BUTH      DO1             8.5261220660        7.9460897767        6.4703129924  BUTH      364             0.0000000000
     22461       999  BUTH      O2              9.5354830226        9.3414559337        7.1890216493  BUTH      364             0.0000000000
     22462       999  BUTH      DO2             9.5598386435        9.3545886973        7.2017714110  BUTH      364             0.0000000000
     22463       999  BUTH      H1              5.3063979440        8.5395702448        7.7233781871  BUTH      364             0.0000000000
     22464       999  BUTH      H2              6.5992360093        8.5135241269        8.9627301824  BUTH      364             0.0000000000
     22465       999  BUTH      H3              5.1256599892        9.5164335714        9.2061940149  BUTH      364             0.0000000000
     22466       999  BUTH      H4              7.0552284319       10.9841700353        8.4790999403  BUTH      364             0.0000000000
     22467       999  BUTH      H5              5.7053990349       10.9930363592        7.3212420717  BUTH      364             0.0000000000
     22468       999  BUTH      H6              7.8669467370       10.8605389989        6.1907784533  BUTH      364             0.0000000000
     22469       999  BUTH      H7              6.7817524984        9.5446709242        5.7925111300  BUTH      364             0.0000000000
     22470       999  BUTH      H8              9.8296462908        8.4679457373        6.8867834843  BUTH      364             0.0000000000
     22471       999  BUTH      H9              9.1506511480        7.3475649511        6.7209090213  BUTH      364             0.0000000000
     22472       999  BUTH      LPO11           8.1493619136        7.8862409456        6.2211279047  BUTH      364             0.0000000000
     22473       999  BUTH      LPO12           8.6686143880        7.7182986908        6.5883514817  BUTH      364             0.0000000000
     22474       999  BUTH      LPO21           9.6243947326        9.5478118079        6.9206712049  BUTH      364             0.0000000000
     22475       999  BUTH      LPO22           9.5778657858        9.3193261772        7.5357405199  BUTH      364             0.0000000000
     22476      1000  BUTH      C1             -2.6980950503      -21.0299597618        3.9207916736  BUTH      365             0.0000000000
     22477      1000  BUTH      DC1            -2.7383122823      -21.0535608875        3.8737389571  BUTH      365             0.0000000000
     22478      1000  BUTH      C2             -2.5123929219      -22.1672999058        2.9303599124  BUTH      365             0.0000000000
     22479      1000  BUTH      DC2            -2.4458860131      -22.1485327569        2.8869900630  BUTH      365             0.0000000000
     22480      1000  BUTH      C3             -3.8617616124      -22.6406758946        2.3647334606  BUTH      365             0.0000000000
     22481      1000  BUTH      DC3            -3.8706677156      -22.6275264464        2.3973434933  BUTH      365             0.0000000000
     22482      1000  BUTH      C4             -4.7764383733      -22.8769269584        3.3451192903  BUTH      365             0.0000000000
     22483      1000  BUTH      DC4            -4.7757439949      -22.8662907870        3.3238635494  BUTH      365             0.0000000000
     22484      1000  BUTH      O1             -5.6035701026      -21.9660066608        3.4790602680  BUTH      365             0.0000000000
     22485      1000  BUTH      DO1            -5.6154054551      -22.0000622881        3.4776785845  BUTH      365             0.0000000000
     22486      1000  BUTH      O2             -5.1608201672      -24.0145873119        3.6126787131  BUTH      365             0.0000000000
     22487      1000  BUTH      DO2            -5.1613317307      -24.0124233035        3.5660776841  BUTH      365             0.0000000000
     22488      1000  BUTH      H1             -3.1831358808      -20.1490958943        3.4484197443  BUTH      365             0.0000000000
     22489      1000  BUTH      H2             -3.3417783880      -21.3489219657        4.7682914521  BUTH      365             0.0000000000
     22490      1000  BUTH      H3             -1.7281603046      -20.7103749012        4.3582995096  BUTH      365             0.0000000000
     22491      1000  BUTH      H4             -2.0338180566      -23.0145546031        3.4665003570  BUTH      365             0.0000000000
     22492      1000  BUTH      H5             -1.8209965080      -21.8608579294        2.1164893364  BUTH      365             0.0000000000
     22493      1000  BUTH      H6             -3.6547443209      -23.5311699767        1.7334766720  BUTH      365             0.0000000000
     22494      1000  BUTH      H7             -4.1731032220      -21.8637070781        1.6341810253  BUTH      365             0.0000000000
     22495      1000  BUTH      H8             -5.7639890911      -23.8313403292        4.3499085229  BUTH      365             0.0000000000
     22496      1000  BUTH      H9             -6.3706336295      -22.1974555891        4.0240427808  BUTH      365             0.0000000000
     22497      1000  BUTH      LPO11          -5.5382708694      -21.7102677957        3.2492045676  BUTH      365             0.0000000000
     22498      1000  BUTH      LPO12          -5.8288673015      -22.0455397424        3.7348251232  BUTH      365             0.0000000000
     22499      1000  BUTH      LPO21          -5.3913140994      -24.0918167055        3.3608689278  BUTH      365             0.0000000000
     22500      1000  BUTH      LPO22          -4.8934095936      -24.1602387720        3.7852395352  BUTH      365             0.0000000000
